 Gaussian 03, Revision E.01,
 Gaussian 03:  EM64T-G03RevE.01 11-Sep-2007

 ----------------------------------------------------
 # b3lyp/6-31+G(d,p) int=ultrafine pop=(ReadRadii,MK)
 ----------------------------------------------------

 ---------------------------------------
 Ca2PO3_10.mol2_plusQ.out.z51529.zip.xyz
 ---------------------------------------
 Symbolic Z-matrix:
 Charge =  1 Multiplicity = 1

                         Standard orientation:
 ---------------------------------------------------------------------
 Center     Atomic     Atomic              Coordinates (Angstroms)
 Number     Number      Type              X           Y           Z
 ---------------------------------------------------------------------
    1          8             0        0.000034    0.936729   -1.045851
    2          8             0       -0.000010   -1.600901    0.120499
    3          8             0       -0.000038   -0.571441    1.228339
    4         15             0        0.000015    1.547449    0.502969
    5         20             0        1.828572   -0.333184   -0.249201
    6         20             0       -1.828578   -0.333158   -0.249221
 ---------------------------------------------------------------------

 SCF Done:  E(RB+HF-LYP) =  -1921.96184652     A.U. after    7 cycles

 The electronic state is 1-A.
 Alpha  occ. eigenvalues -- -145.55211-145.55205 -77.22320 -19.29863 -19.28063
 Alpha  occ. eigenvalues --  -19.24957 -15.61996 -15.61991 -12.75202 -12.75201
 Alpha  occ. eigenvalues --  -12.75178 -12.75178 -12.75145 -12.75144  -6.68778
 Alpha  occ. eigenvalues --   -4.85379  -4.84982  -4.84213  -1.99003  -1.98972
 Alpha  occ. eigenvalues --   -1.27712  -1.26501  -1.26458  -1.26374  -1.26217
 Alpha  occ. eigenvalues --   -1.26052  -1.13470  -1.06198  -0.91807  -0.65470
 Alpha  occ. eigenvalues --   -0.53659  -0.51588  -0.51471  -0.47845  -0.45469
 Alpha  occ. eigenvalues --   -0.42778  -0.38629  -0.36974  -0.29677
 Alpha virt. eigenvalues --   -0.22503  -0.20754  -0.18967  -0.14143  -0.12621
 Alpha virt. eigenvalues --   -0.11981  -0.11853  -0.10263  -0.08379  -0.08120
 Alpha virt. eigenvalues --   -0.07351  -0.06937  -0.06224  -0.05365  -0.05190

 Mulliken atomic charges:
              1
     1  O   -0.679781
     2  O   -0.616839
     3  O   -0.466523
     4  P   -0.131460
     5  Ca   1.447301
     6  Ca   1.447302
 Sum of Mulliken charges=   1.00000

 Dipole moment (field-independent basis, Debye):
    X=    -0.0001    Y=    -3.4651    Z=    -4.1807  Tot=     5.4300
 Quadrupole moment (field-independent basis, Debye-Ang):
   XX=    -1.4713   YY=   -62.2103   ZZ=   -58.2959
   XY=    -0.0005   XZ=     0.0005   YZ=     5.2310

 Normal termination of Gaussian 03 at Fri Jun 12 17:34:37 2015.
