 Gaussian 03, Revision E.01,
 Gaussian 03:  EM64T-G03RevE.01 11-Sep-2007

 ----------------------------------------------------
 # b3lyp/6-31+G(d,p) int=ultrafine pop=(ReadRadii,MK)
 ----------------------------------------------------

 ---------------------------------------
 Ca2PO3_31.mol2_plusQ.out.z51552.zip.xyz
 ---------------------------------------
 Symbolic Z-matrix:
 Charge =  1 Multiplicity = 1

                         Standard orientation:
 ---------------------------------------------------------------------
 Center     Atomic     Atomic              Coordinates (Angstroms)
 Number     Number      Type              X           Y           Z
 ---------------------------------------------------------------------
    1          8             0        1.281834    1.273955    0.000189
    2          8             0       -1.272676    1.282364   -0.000061
    3          8             0       -0.006677   -1.917710    0.000049
    4         15             0        0.007445    2.150409   -0.000041
    5         20             0        1.868277   -0.940446   -0.000051
    6         20             0       -1.874853   -0.927805    0.000009
 ---------------------------------------------------------------------

 SCF Done:  E(RB+HF-LYP) =  -1922.13413618     A.U. after    7 cycles

 The electronic state is 1-A.
 Alpha  occ. eigenvalues -- -145.52215-145.52213 -77.29926 -19.27738 -19.27726
 Alpha  occ. eigenvalues --  -19.15035 -15.59103 -15.59101 -12.72353 -12.72352
 Alpha  occ. eigenvalues --  -12.72278 -12.72276 -12.72179 -12.72176  -6.75408
 Alpha  occ. eigenvalues --   -4.91850  -4.91630  -4.91190  -1.96272  -1.96253
 Alpha  occ. eigenvalues --   -1.24082  -1.24061  -1.23943  -1.23742  -1.23416
 Alpha  occ. eigenvalues --   -1.22889  -1.13629  -1.08322  -0.89403  -0.67426
 Alpha  occ. eigenvalues --   -0.56978  -0.52455  -0.52385  -0.45562  -0.43667
 Alpha  occ. eigenvalues --   -0.40561  -0.35634  -0.33620  -0.33424
 Alpha virt. eigenvalues --   -0.20921  -0.19679  -0.19651  -0.12837  -0.11779
 Alpha virt. eigenvalues --   -0.11638  -0.10826  -0.10187  -0.07820  -0.07313
 Alpha virt. eigenvalues --   -0.06401  -0.05944  -0.05385  -0.04881  -0.04594

 Mulliken atomic charges:
              1
     1  O   -0.716419
     2  O   -0.716251
     3  O   -1.199696
     4  P    0.674806
     5  Ca   1.478793
     6  Ca   1.478768
 Sum of Mulliken charges=   1.00000

 Dipole moment (field-independent basis, Debye):
    X=    -0.0159    Y=    -3.9084    Z=    -0.0008  Tot=     3.9084
 Quadrupole moment (field-independent basis, Debye-Ang):
   XX=    -5.5482   YY=   -61.9164   ZZ=   -49.7216
   XY=    -0.1940   XZ=    -0.0021   YZ=     0.0006

 Normal termination of Gaussian 03 at Fri Jun 12 17:34:36 2015.
