 Gaussian 03, Revision E.01,
 Gaussian 03:  EM64T-G03RevE.01 11-Sep-2007

 ----------------------------------------------------
 # b3lyp/6-31+G(d,p) int=ultrafine pop=(ReadRadii,MK)
 ----------------------------------------------------

 ---------------------------------------
 Ca2PO3_20.mol2_plusQ.out.z51540.zip.xyz
 ---------------------------------------
 Symbolic Z-matrix:
 Charge =  1 Multiplicity = 1

                         Standard orientation:
 ---------------------------------------------------------------------
 Center     Atomic     Atomic              Coordinates (Angstroms)
 Number     Number      Type              X           Y           Z
 ---------------------------------------------------------------------
    1          8             0        1.327662    1.247406   -0.408509
    2          8             0       -1.327718    1.247429   -0.408409
    3          8             0        0.000000   -0.721173    0.574971
    4         15             0        0.000002    1.116707    0.457331
    5         20             0        2.128390   -0.773485   -0.123099
    6         20             0       -2.128370   -0.773510   -0.123119
 ---------------------------------------------------------------------

 SCF Done:  E(RB+HF-LYP) =  -1922.11511370     A.U. after    9 cycles

 The electronic state is 1-A.
 Alpha  occ. eigenvalues -- -145.55272-145.55270 -77.25384 -19.23141 -19.21316
 Alpha  occ. eigenvalues --  -19.21316 -15.62140 -15.62138 -12.75372 -12.75371
 Alpha  occ. eigenvalues --  -12.75275 -12.75275 -12.75270 -12.75269  -6.70504
 Alpha  occ. eigenvalues --   -4.86944  -4.86777  -4.86359  -1.99230  -1.99225
 Alpha  occ. eigenvalues --   -1.26943  -1.26887  -1.26839  -1.26571  -1.26407
 Alpha  occ. eigenvalues --   -1.26254  -1.07538  -1.02033  -1.00083  -0.62168
 Alpha  occ. eigenvalues --   -0.50903  -0.50210  -0.47840  -0.45092  -0.41420
 Alpha  occ. eigenvalues --   -0.38981  -0.38569  -0.38420  -0.30783
 Alpha virt. eigenvalues --   -0.22947  -0.22550  -0.15340  -0.13956  -0.13386
 Alpha virt. eigenvalues --   -0.12394  -0.11226  -0.09575  -0.07966  -0.06776
 Alpha virt. eigenvalues --   -0.05846  -0.05586  -0.05239  -0.04658  -0.04653

 Mulliken atomic charges:
              1
     1  O   -0.798371
     2  O   -0.798377
     3  O   -1.066794
     4  P    0.806611
     5  Ca   1.428469
     6  Ca   1.428462
 Sum of Mulliken charges=   1.00000

 Dipole moment (field-independent basis, Debye):
    X=     0.0003    Y=   -13.0273    Z=    -1.2065  Tot=    13.0831
 Quadrupole moment (field-independent basis, Debye-Ang):
   XX=     4.3717   YY=   -53.9334   ZZ=   -56.6736
   XY=     0.0004   XZ=     0.0006   YZ=     6.2920

 Normal termination of Gaussian 03 at Fri Jun 12 17:34:45 2015.
