 Gaussian 03, Revision E.01,
 Gaussian 03:  EM64T-G03RevE.01 11-Sep-2007

 ----------------------------------------------------
 # b3lyp/6-31+G(d,p) int=ultrafine pop=(ReadRadii,MK)
 ----------------------------------------------------

 ----------------------------------------
 Ca2PO3_26.mol2_plusQc.out.z51546.zip.xyz
 ----------------------------------------
 Symbolic Z-matrix:
 Charge =  1 Multiplicity = 1

                         Standard orientation:
 ---------------------------------------------------------------------
 Center     Atomic     Atomic              Coordinates (Angstroms)
 Number     Number      Type              X           Y           Z
 ---------------------------------------------------------------------
    1          8             0        1.273632    1.281569    0.000449
    2          8             0       -1.280937    1.274966    0.000379
    3          8             0        0.005233   -1.918067   -0.000081
    4         15             0       -0.005842    2.150663   -0.000331
    5         20             0       -1.868655   -0.939180   -0.000011
    6         20             0        1.873865   -0.929204   -0.000041
 ---------------------------------------------------------------------

 SCF Done:  E(RB+HF-LYP) =  -1922.13413603     A.U. after    7 cycles

 The electronic state is 1-A.
 Alpha  occ. eigenvalues -- -145.52214-145.52213 -77.29930 -19.27743 -19.27724
 Alpha  occ. eigenvalues --  -19.15038 -15.59102 -15.59101 -12.72352 -12.72352
 Alpha  occ. eigenvalues --  -12.72277 -12.72276 -12.72178 -12.72176  -6.75412
 Alpha  occ. eigenvalues --   -4.91854  -4.91634  -4.91194  -1.96272  -1.96252
 Alpha  occ. eigenvalues --   -1.24082  -1.24061  -1.23943  -1.23742  -1.23416
 Alpha  occ. eigenvalues --   -1.22889  -1.13627  -1.08321  -0.89406  -0.67428
 Alpha  occ. eigenvalues --   -0.56978  -0.52455  -0.52384  -0.45561  -0.43667
 Alpha  occ. eigenvalues --   -0.40565  -0.35637  -0.33624  -0.33428
 Alpha virt. eigenvalues --   -0.20920  -0.19683  -0.19651  -0.12838  -0.11779
 Alpha virt. eigenvalues --   -0.11639  -0.10826  -0.10186  -0.07820  -0.07313
 Alpha virt. eigenvalues --   -0.06401  -0.05945  -0.05385  -0.04882  -0.04595

 Mulliken atomic charges:
              1
     1  O   -0.716231
     2  O   -0.716631
     3  O   -1.199597
     4  P    0.675016
     5  Ca   1.478721
     6  Ca   1.478722
 Sum of Mulliken charges=   1.00000

 Dipole moment (field-independent basis, Debye):
    X=     0.0147    Y=    -3.9066    Z=    -0.0019  Tot=     3.9067
 Quadrupole moment (field-independent basis, Debye-Ang):
   XX=    -5.5664   YY=   -61.9170   ZZ=   -49.7211
   XY=     0.1551   XZ=    -0.0008   YZ=    -0.0021

 Normal termination of Gaussian 03 at Fri Jun 12 17:34:39 2015.
