 Gaussian 03, Revision E.01,
 Gaussian 03:  EM64T-G03RevE.01 11-Sep-2007

 ----------------------------------------------------
 # b3lyp/6-31+G(d,p) int=ultrafine pop=(ReadRadii,MK)
 ----------------------------------------------------

 ---------------------------------------
 Ca2PO3_22.mol2_plusQ.out.z51542.zip.xyz
 ---------------------------------------
 Symbolic Z-matrix:
 Charge =  1 Multiplicity = 1

                         Standard orientation:
 ---------------------------------------------------------------------
 Center     Atomic     Atomic              Coordinates (Angstroms)
 Number     Number      Type              X           Y           Z
 ---------------------------------------------------------------------
    1          8             0        2.171568    0.728822    0.000219
    2          8             0        2.286512   -0.692088    0.000069
    3          8             0       -0.250998   -0.721014   -0.000191
    4         15             0        1.009214   -1.642781   -0.000051
    5         20             0        0.193656    1.816847   -0.000081
    6         20             0       -2.633399   -0.311050    0.000079
 ---------------------------------------------------------------------

 SCF Done:  E(RB+HF-LYP) =  -1921.93849078     A.U. after    8 cycles

 The electronic state is 1-A.
 Alpha  occ. eigenvalues -- -145.56160-145.55549 -77.34225 -19.39179 -19.33410
 Alpha  occ. eigenvalues --  -19.29909 -15.63121 -15.62487 -12.76295 -12.76281
 Alpha  occ. eigenvalues --  -12.76235 -12.75705 -12.75677 -12.75564  -6.79980
 Alpha  occ. eigenvalues --   -4.96280  -4.96253  -4.95766  -2.00120  -1.99538
 Alpha  occ. eigenvalues --   -1.27637  -1.27464  -1.27351  -1.27233  -1.27112
 Alpha  occ. eigenvalues --   -1.26920  -1.25120  -1.16058  -0.99800  -0.73121
 Alpha  occ. eigenvalues --   -0.64418  -0.59913  -0.59035  -0.52758  -0.52659
 Alpha  occ. eigenvalues --   -0.47810  -0.40591  -0.39555  -0.30453
 Alpha virt. eigenvalues --   -0.24224  -0.22815  -0.17608  -0.17527  -0.15685
 Alpha virt. eigenvalues --   -0.14054  -0.13378  -0.11865  -0.10025  -0.09048
 Alpha virt. eigenvalues --   -0.08708  -0.06965  -0.06419  -0.06294  -0.06032

 Mulliken atomic charges:
              1
     1  O   -0.435737
     2  O   -0.251425
     3  O   -0.713118
     4  P    0.841257
     5  Ca   0.918359
     6  Ca   0.640663
 Sum of Mulliken charges=   1.00000

 Dipole moment (field-independent basis, Debye):
    X=    -7.6880    Y=     1.5728    Z=    -0.0005  Tot=     7.8473
 Quadrupole moment (field-independent basis, Debye-Ang):
   XX=   -47.1818   YY=   -38.9350   ZZ=   -58.8128
   XY=     8.2813   XZ=    -0.0023   YZ=    -0.0017

 Normal termination of Gaussian 03 at Fri Jun 12 17:34:41 2015.
