 Gaussian 03, Revision E.01,
 Gaussian 03:  EM64T-G03RevE.01 11-Sep-2007

 ----------------------------------------------------
 # b3lyp/6-31+G(d,p) int=ultrafine pop=(ReadRadii,MK)
 ----------------------------------------------------

 ---------------------------------------
 Ca2PO3_1.mol2_plusQc.out.z51539.zip.xyz
 ---------------------------------------
 Symbolic Z-matrix:
 Charge =  1 Multiplicity = 1

                         Standard orientation:
 ---------------------------------------------------------------------
 Center     Atomic     Atomic              Coordinates (Angstroms)
 Number     Number      Type              X           Y           Z
 ---------------------------------------------------------------------
    1          8             0       -1.297405    1.259341   -0.000011
    2          8             0        1.256704    1.296636   -0.000081
    3          8             0        0.029478   -1.917770    0.000169
    4         15             0       -0.033172    2.150238    0.000069
    5         20             0       -1.856520   -0.962116   -0.000051
    6         20             0        1.885888   -0.905846   -0.000031
 ---------------------------------------------------------------------

 SCF Done:  E(RB+HF-LYP) =  -1922.13413584     A.U. after    7 cycles

 The electronic state is 1-A.
 Alpha  occ. eigenvalues -- -145.52214-145.52213 -77.29928 -19.27754 -19.27712
 Alpha  occ. eigenvalues --  -19.15033 -15.59102 -15.59101 -12.72352 -12.72351
 Alpha  occ. eigenvalues --  -12.72277 -12.72276 -12.72178 -12.72176  -6.75410
 Alpha  occ. eigenvalues --   -4.91852  -4.91632  -4.91192  -1.96272  -1.96252
 Alpha  occ. eigenvalues --   -1.24082  -1.24061  -1.23943  -1.23742  -1.23415
 Alpha  occ. eigenvalues --   -1.22889  -1.13632  -1.08324  -0.89402  -0.67428
 Alpha  occ. eigenvalues --   -0.56980  -0.52458  -0.52387  -0.45563  -0.43668
 Alpha  occ. eigenvalues --   -0.40563  -0.35632  -0.33619  -0.33423
 Alpha virt. eigenvalues --   -0.20920  -0.19681  -0.19651  -0.12837  -0.11779
 Alpha virt. eigenvalues --   -0.11638  -0.10826  -0.10186  -0.07820  -0.07313
 Alpha virt. eigenvalues --   -0.06401  -0.05944  -0.05385  -0.04882  -0.04594

 Mulliken atomic charges:
              1
     1  O   -0.716513
     2  O   -0.716162
     3  O   -1.199586
     4  P    0.674844
     5  Ca   1.478699
     6  Ca   1.478719
 Sum of Mulliken charges=   1.00000

 Dipole moment (field-independent basis, Debye):
    X=     0.0708    Y=    -3.9052    Z=    -0.0012  Tot=     3.9059
 Quadrupole moment (field-independent basis, Debye-Ang):
   XX=    -5.5702   YY=   -61.9079   ZZ=   -49.7218
   XY=     0.8572   XZ=     0.0006   YZ=     0.0027

 Normal termination of Gaussian 03 at Fri Jun 12 17:34:37 2015.
