 Gaussian 03, Revision E.01,
 Gaussian 03:  EM64T-G03RevE.01 11-Sep-2007

 ----------------------------------------------------
 # b3lyp/6-31+G(d,p) int=ultrafine pop=(ReadRadii,MK)
 ----------------------------------------------------

 --------------------------------------
 Ca2PO3_9.mol2_plusQ.out.z51560.zip.xyz
 --------------------------------------
 Symbolic Z-matrix:
 Charge =  1 Multiplicity = 1

                         Standard orientation:
 ---------------------------------------------------------------------
 Center     Atomic     Atomic              Coordinates (Angstroms)
 Number     Number      Type              X           Y           Z
 ---------------------------------------------------------------------
    1          8             0       -1.327377    1.247733   -0.408490
    2          8             0        1.327583    1.247657   -0.408500
    3          8             0        0.000009   -0.724770    0.573860
    4         15             0        0.000073    1.118870    0.457470
    5         20             0       -2.126901   -0.773646   -0.122920
    6         20             0        2.126759   -0.773755   -0.122930
 ---------------------------------------------------------------------

 SCF Done:  E(RB+HF-LYP) =  -1922.11511704     A.U. after    9 cycles

 The electronic state is 1-A.
 Alpha  occ. eigenvalues -- -145.55251-145.55246 -77.25375 -19.23091 -19.21325
 Alpha  occ. eigenvalues --  -19.21321 -15.62119 -15.62114 -12.75351 -12.75348
 Alpha  occ. eigenvalues --  -12.75254 -12.75251 -12.75249 -12.75246  -6.70498
 Alpha  occ. eigenvalues --   -4.86938  -4.86770  -4.86350  -1.99211  -1.99204
 Alpha  occ. eigenvalues --   -1.26924  -1.26868  -1.26820  -1.26553  -1.26387
 Alpha  occ. eigenvalues --   -1.26231  -1.07515  -1.02043  -0.99998  -0.62159
 Alpha  occ. eigenvalues --   -0.50870  -0.50191  -0.47812  -0.45056  -0.41390
 Alpha  occ. eigenvalues --   -0.38991  -0.38576  -0.38400  -0.30811
 Alpha virt. eigenvalues --   -0.22938  -0.22531  -0.15325  -0.13942  -0.13374
 Alpha virt. eigenvalues --   -0.12382  -0.11218  -0.09564  -0.07960  -0.06772
 Alpha virt. eigenvalues --   -0.05897  -0.05584  -0.05237  -0.04657  -0.04652

 Mulliken atomic charges:
              1
     1  O   -0.798272
     2  O   -0.798339
     3  O   -1.068536
     4  P    0.806024
     5  Ca   1.429566
     6  Ca   1.429557
 Sum of Mulliken charges=   1.00000

 Dipole moment (field-independent basis, Debye):
    X=    -0.0018    Y=   -13.0182    Z=    -1.2185  Tot=    13.0751
 Quadrupole moment (field-independent basis, Debye-Ang):
   XX=     4.3771   YY=   -53.9078   ZZ=   -56.6503
   XY=    -0.0023   XZ=     0.0003   YZ=     6.3127

 Normal termination of Gaussian 03 at Fri Jun 12 17:35:08 2015.
