 Gaussian 03, Revision E.01,
 Gaussian 03:  EM64T-G03RevE.01 11-Sep-2007

 ----------------------------------------------------
 # b3lyp/6-31+G(d,p) int=ultrafine pop=(ReadRadii,MK)
 ----------------------------------------------------

 ---------------------------------------
 Ca2PO3_17.mol2_plusQ.out.z51536.zip.xyz
 ---------------------------------------
 Symbolic Z-matrix:
 Charge =  1 Multiplicity = 1

                         Standard orientation:
 ---------------------------------------------------------------------
 Center     Atomic     Atomic              Coordinates (Angstroms)
 Number     Number      Type              X           Y           Z
 ---------------------------------------------------------------------
    1          8             0       -1.292346    1.263614    0.004061
    2          8             0        0.022451   -1.917038   -0.000409
    3          8             0        1.261083    1.291849    0.004781
    4         15             0       -0.025155    2.150061   -0.003449
    5         20             0       -1.860359   -0.955398   -0.000299
    6         20             0        1.882750   -0.912518   -0.000489
 ---------------------------------------------------------------------

 SCF Done:  E(RB+HF-LYP) =  -1922.13413377     A.U. after    7 cycles

 The electronic state is 1-A.
 Alpha  occ. eigenvalues -- -145.52210-145.52210 -77.29918 -19.27757 -19.27694
 Alpha  occ. eigenvalues --  -19.15027 -15.59098 -15.59098 -12.72348 -12.72348
 Alpha  occ. eigenvalues --  -12.72273 -12.72273 -12.72174 -12.72172  -6.75402
 Alpha  occ. eigenvalues --   -4.91844  -4.91624  -4.91183  -1.96268  -1.96249
 Alpha  occ. eigenvalues --   -1.24079  -1.24058  -1.23939  -1.23739  -1.23412
 Alpha  occ. eigenvalues --   -1.22885  -1.13638  -1.08324  -0.89397  -0.67423
 Alpha  occ. eigenvalues --   -0.56979  -0.52459  -0.52390  -0.45562  -0.43663
 Alpha  occ. eigenvalues --   -0.40559  -0.35630  -0.33616  -0.33418
 Alpha virt. eigenvalues --   -0.20919  -0.19672  -0.19650  -0.12836  -0.11778
 Alpha virt. eigenvalues --   -0.11634  -0.10825  -0.10186  -0.07819  -0.07312
 Alpha virt. eigenvalues --   -0.06401  -0.05942  -0.05384  -0.04881  -0.04592

 Mulliken atomic charges:
              1
     1  O   -0.716685
     2  O   -1.199643
     3  O   -0.715569
     4  P    0.674363
     5  Ca   1.478762
     6  Ca   1.478772
 Sum of Mulliken charges=   1.00000

 Dipole moment (field-independent basis, Debye):
    X=     0.0597    Y=    -3.9085    Z=    -0.0247  Tot=     3.9090
 Quadrupole moment (field-independent basis, Debye-Ang):
   XX=    -5.5442   YY=   -61.9011   ZZ=   -49.7209
   XY=     0.6614   XZ=    -0.0060   YZ=    -0.0157

 Normal termination of Gaussian 03 at Fri Jun 12 17:34:37 2015.
