 Gaussian 03, Revision E.01,
 Gaussian 03:  EM64T-G03RevE.01 11-Sep-2007

 ----------------------------------------------------
 # b3lyp/6-31+G(d,p) int=ultrafine pop=(ReadRadii,MK)
 ----------------------------------------------------

 ----------------------------------------
 Ca2PO3_18.mol2c_plusQ.out.z51537.zip.xyz
 ----------------------------------------
 Symbolic Z-matrix:
 Charge =  1 Multiplicity = 1

                         Standard orientation:
 ---------------------------------------------------------------------
 Center     Atomic     Atomic              Coordinates (Angstroms)
 Number     Number      Type              X           Y           Z
 ---------------------------------------------------------------------
    1          8             0        1.953541   -0.095640   -0.765572
    2          8             0        1.952821   -0.094920    0.765878
    3          8             0       -0.378068   -0.849211   -0.000552
    4         15             0        1.084162   -1.408290    0.000178
    5         20             0        0.391840    1.667839   -0.000112
    6         20             0       -2.616279   -0.195713    0.000078
 ---------------------------------------------------------------------

 SCF Done:  E(RB+HF-LYP) =  -1921.95709998     A.U. after   10 cycles

 The electronic state is 1-A.
 Alpha  occ. eigenvalues -- -145.56728-145.55575 -77.35270 -19.38085 -19.37918
 Alpha  occ. eigenvalues --  -19.30936 -15.63629 -15.62508 -12.76827 -12.76820
 Alpha  occ. eigenvalues --  -12.76737 -12.75693 -12.75677 -12.75616  -6.80526
 Alpha  occ. eigenvalues --   -4.96889  -4.96801  -4.96289  -2.00585  -1.99498
 Alpha  occ. eigenvalues --   -1.30278  -1.27992  -1.27973  -1.26879  -1.26861
 Alpha  occ. eigenvalues --   -1.26675  -1.26272  -1.14272  -1.02072  -0.75115
 Alpha  occ. eigenvalues --   -0.63129  -0.61333  -0.60053  -0.55800  -0.51003
 Alpha  occ. eigenvalues --   -0.48812  -0.45378  -0.44300  -0.29679
 Alpha virt. eigenvalues --   -0.22690  -0.21257  -0.18584  -0.16725  -0.16630
 Alpha virt. eigenvalues --   -0.14556  -0.13154  -0.12039  -0.10609  -0.09490
 Alpha virt. eigenvalues --   -0.09128  -0.07387  -0.06348  -0.06217  -0.06026

 Mulliken atomic charges:
              1
     1  O   -0.361207
     2  O   -0.357271
     3  O   -0.682532
     4  P    0.896728
     5  Ca   0.836242
     6  Ca   0.668041
 Sum of Mulliken charges=   1.00000

 Dipole moment (field-independent basis, Debye):
    X=    -5.2118    Y=     2.3491    Z=     0.0209  Tot=     5.7168
 Quadrupole moment (field-independent basis, Debye-Ang):
   XX=   -39.8322   YY=   -45.8818   ZZ=   -59.9925
   XY=    12.0159   XZ=     0.0271   YZ=    -0.0062

 Normal termination of Gaussian 03 at Fri Jun 12 17:34:42 2015.
