 Gaussian 03, Revision E.01,
 Gaussian 03:  EM64T-G03RevE.01 11-Sep-2007

 ----------------------------------------------------
 # b3lyp/6-31+G(d,p) int=ultrafine pop=(ReadRadii,MK)
 ----------------------------------------------------

 ----------------------------------------
 Ca2PO3_10.mol2c_plusQ.out.z51528.zip.xyz
 ----------------------------------------
 Symbolic Z-matrix:
 Charge =  1 Multiplicity = 1

                         Standard orientation:
 ---------------------------------------------------------------------
 Center     Atomic     Atomic              Coordinates (Angstroms)
 Number     Number      Type              X           Y           Z
 ---------------------------------------------------------------------
    1          8             0        1.276155    1.278684   -0.001108
    2          8             0        0.001261   -1.917452    0.000942
    3          8             0       -1.278125    1.277252    0.001812
    4         15             0       -0.001375    2.150068   -0.000108
    5         20             0       -1.871023   -0.935224   -0.000688
    6         20             0        1.872338   -0.932720    0.000112
 ---------------------------------------------------------------------

 SCF Done:  E(RB+HF-LYP) =  -1922.13413601     A.U. after    7 cycles

 The electronic state is 1-A.
 Alpha  occ. eigenvalues -- -145.52213-145.52212 -77.29922 -19.27744 -19.27718
 Alpha  occ. eigenvalues --  -19.15033 -15.59101 -15.59100 -12.72351 -12.72351
 Alpha  occ. eigenvalues --  -12.72276 -12.72275 -12.72177 -12.72175  -6.75405
 Alpha  occ. eigenvalues --   -4.91848  -4.91628  -4.91187  -1.96271  -1.96251
 Alpha  occ. eigenvalues --   -1.24081  -1.24060  -1.23942  -1.23742  -1.23415
 Alpha  occ. eigenvalues --   -1.22888  -1.13637  -1.08328  -0.89401  -0.67426
 Alpha  occ. eigenvalues --   -0.56982  -0.52460  -0.52391  -0.45566  -0.43671
 Alpha  occ. eigenvalues --   -0.40559  -0.35632  -0.33618  -0.33422
 Alpha virt. eigenvalues --   -0.20920  -0.19675  -0.19651  -0.12837  -0.11779
 Alpha virt. eigenvalues --   -0.11637  -0.10826  -0.10187  -0.07820  -0.07313
 Alpha virt. eigenvalues --   -0.06400  -0.05944  -0.05384  -0.04880  -0.04593

 Mulliken atomic charges:
              1
     1  O   -0.715879
     2  O   -1.199726
     3  O   -0.716464
     4  P    0.674517
     5  Ca   1.478768
     6  Ca   1.478784
 Sum of Mulliken charges=   1.00000

 Dipole moment (field-independent basis, Debye):
    X=     0.0073    Y=    -3.9079    Z=    -0.0105  Tot=     3.9079
 Quadrupole moment (field-independent basis, Debye-Ang):
   XX=    -5.5390   YY=   -61.9200   ZZ=   -49.7211
   XY=     0.0435   XZ=     0.0259   YZ=     0.0136

 Normal termination of Gaussian 03 at Fri Jun 12 17:34:37 2015.
