 Gaussian 03, Revision E.01,
 Gaussian 03:  EM64T-G03RevE.01 11-Sep-2007

 ----------------------------------------------------
 # b3lyp/6-31+G(d,p) int=ultrafine pop=(ReadRadii,MK)
 ----------------------------------------------------

 ---------------------------------------
 Ca2PO3_29.mol2_plusQ.out.z51549.zip.xyz
 ---------------------------------------
 Symbolic Z-matrix:
 Charge =  1 Multiplicity = 1

                         Standard orientation:
 ---------------------------------------------------------------------
 Center     Atomic     Atomic              Coordinates (Angstroms)
 Number     Number      Type              X           Y           Z
 ---------------------------------------------------------------------
    1          8             0        0.000021   -0.724751    0.574372
    2          8             0        1.327442    1.247608   -0.408728
    3          8             0       -1.327498    1.247659   -0.408548
    4         15             0       -0.000038    1.119169    0.457532
    5         20             0       -2.126599   -0.773821   -0.123018
    6         20             0        2.126641   -0.773762   -0.122968
 ---------------------------------------------------------------------

 SCF Done:  E(RB+HF-LYP) =  -1922.11511707     A.U. after    9 cycles

 The electronic state is 1-A.
 Alpha  occ. eigenvalues -- -145.55249-145.55246 -77.25375 -19.23090 -19.21328
 Alpha  occ. eigenvalues --  -19.21319 -15.62117 -15.62114 -12.75350 -12.75347
 Alpha  occ. eigenvalues --  -12.75253 -12.75251 -12.75248 -12.75245  -6.70498
 Alpha  occ. eigenvalues --   -4.86938  -4.86770  -4.86350  -1.99210  -1.99204
 Alpha  occ. eigenvalues --   -1.26923  -1.26867  -1.26820  -1.26552  -1.26386
 Alpha  occ. eigenvalues --   -1.26230  -1.07511  -1.02041  -0.99993  -0.62159
 Alpha  occ. eigenvalues --   -0.50867  -0.50189  -0.47809  -0.45052  -0.41388
 Alpha  occ. eigenvalues --   -0.38991  -0.38574  -0.38398  -0.30815
 Alpha virt. eigenvalues --   -0.22939  -0.22530  -0.15326  -0.13941  -0.13374
 Alpha virt. eigenvalues --   -0.12381  -0.11218  -0.09563  -0.07960  -0.06772
 Alpha virt. eigenvalues --   -0.05900  -0.05584  -0.05237  -0.04657  -0.04652

 Mulliken atomic charges:
              1
     1  O   -1.068683
     2  O   -0.798484
     3  O   -0.798291
     4  P    0.806270
     5  Ca   1.429569
     6  Ca   1.429618
 Sum of Mulliken charges=   1.00000

 Dipole moment (field-independent basis, Debye):
    X=    -0.0007    Y=   -13.0192    Z=    -1.2205  Tot=    13.0763
 Quadrupole moment (field-independent basis, Debye-Ang):
   XX=     4.3695   YY=   -53.9022   ZZ=   -56.6512
   XY=    -0.0012   XZ=     0.0018   YZ=     6.3182

 Normal termination of Gaussian 03 at Fri Jun 12 17:34:41 2015.
