 Gaussian 03, Revision E.01,
 Gaussian 03:  EM64T-G03RevE.01 11-Sep-2007

 ----------------------------------------------------
 # b3lyp/6-31+G(d,p) int=ultrafine pop=(ReadRadii,MK)
 ----------------------------------------------------

 --------------------------------------
 Ca2PO3_5.mol2_plusQ.out.z51556.zip.xyz
 --------------------------------------
 Symbolic Z-matrix:
 Charge =  1 Multiplicity = 1

                         Standard orientation:
 ---------------------------------------------------------------------
 Center     Atomic     Atomic              Coordinates (Angstroms)
 Number     Number      Type              X           Y           Z
 ---------------------------------------------------------------------
    1          8             0       -0.259710    0.015320    1.206399
    2          8             0       -0.259570    0.014680   -1.206301
    3          8             0        1.682149    1.205902   -0.000131
    4         15             0        0.119189    1.182651   -0.000141
    5         20             0        1.590580   -1.037868    0.000119
    6         20             0       -2.145120   -0.343481    0.000000
 ---------------------------------------------------------------------

 SCF Done:  E(RB+HF-LYP) =  -1922.10492674     A.U. after    9 cycles

 The electronic state is 1-A.
 Alpha  occ. eigenvalues -- -145.57785-145.54903 -77.26331 -19.22773 -19.22696
 Alpha  occ. eigenvalues --  -19.21832 -15.64610 -15.61712 -12.77851 -12.77756
 Alpha  occ. eigenvalues --  -12.77741 -12.74898 -12.74888 -12.74874  -6.71706
 Alpha  occ. eigenvalues --   -4.88053  -4.88018  -4.87590  -2.01597  -1.98709
 Alpha  occ. eigenvalues --   -1.29328  -1.28952  -1.28656  -1.26544  -1.25952
 Alpha  occ. eigenvalues --   -1.25949  -1.08725  -1.02512  -1.00435  -0.63349
 Alpha  occ. eigenvalues --   -0.50762  -0.50404  -0.50207  -0.44677  -0.43284
 Alpha  occ. eigenvalues --   -0.40101  -0.38493  -0.36472  -0.33911
 Alpha virt. eigenvalues --   -0.24120  -0.21781  -0.16319  -0.14446  -0.13105
 Alpha virt. eigenvalues --   -0.12336  -0.10459  -0.08307  -0.08100  -0.07091
 Alpha virt. eigenvalues --   -0.06602  -0.06403  -0.05488  -0.05411  -0.04906

 Mulliken atomic charges:
              1
     1  O   -0.899362
     2  O   -0.900693
     3  O   -0.853953
     4  P    0.817820
     5  Ca   1.378722
     6  Ca   1.457466
 Sum of Mulliken charges=   1.00000

 Dipole moment (field-independent basis, Debye):
    X=    -6.1697    Y=   -11.0967    Z=     0.0073  Tot=    12.6965
 Quadrupole moment (field-independent basis, Debye-Ang):
   XX=    -5.5206   YY=   -45.8936   ZZ=   -64.1564
   XY=   -11.4006   XZ=     0.0014   YZ=    -0.0016

 Normal termination of Gaussian 03 at Fri Jun 12 17:35:08 2015.
