 Gaussian 03, Revision E.01,
 Gaussian 03:  EM64T-G03RevE.01 11-Sep-2007

 ----------------------------------------------------
 # b3lyp/6-31+G(d,p) int=ultrafine pop=(ReadRadii,MK)
 ----------------------------------------------------

 ---------------------------------------
 Ca2PO3_30.mol2_plusQ.out.z51551.zip.xyz
 ---------------------------------------
 Symbolic Z-matrix:
 Charge =  1 Multiplicity = 1

                         Standard orientation:
 ---------------------------------------------------------------------
 Center     Atomic     Atomic              Coordinates (Angstroms)
 Number     Number      Type              X           Y           Z
 ---------------------------------------------------------------------
    1          8             0       -1.327428    1.247590   -0.408777
    2          8             0       -0.000048   -0.724730    0.574363
    3          8             0        1.327552    1.247680   -0.408497
    4         15             0        0.000062    1.119140    0.457533
    5         20             0       -2.126698   -0.773730   -0.122957
    6         20             0        2.126622   -0.773840   -0.123027
 ---------------------------------------------------------------------

 SCF Done:  E(RB+HF-LYP) =  -1922.11511705     A.U. after    9 cycles

 The electronic state is 1-A.
 Alpha  occ. eigenvalues -- -145.55250-145.55246 -77.25376 -19.23090 -19.21329
 Alpha  occ. eigenvalues --  -19.21317 -15.62118 -15.62114 -12.75350 -12.75347
 Alpha  occ. eigenvalues --  -12.75254 -12.75250 -12.75249 -12.75245  -6.70498
 Alpha  occ. eigenvalues --   -4.86939  -4.86770  -4.86350  -1.99210  -1.99204
 Alpha  occ. eigenvalues --   -1.26924  -1.26867  -1.26820  -1.26552  -1.26386
 Alpha  occ. eigenvalues --   -1.26231  -1.07511  -1.02040  -0.99993  -0.62159
 Alpha  occ. eigenvalues --   -0.50867  -0.50189  -0.47809  -0.45053  -0.41388
 Alpha  occ. eigenvalues --   -0.38990  -0.38574  -0.38398  -0.30814
 Alpha virt. eigenvalues --   -0.22939  -0.22530  -0.15326  -0.13941  -0.13374
 Alpha virt. eigenvalues --   -0.12381  -0.11218  -0.09563  -0.07960  -0.06772
 Alpha virt. eigenvalues --   -0.05900  -0.05584  -0.05237  -0.04657  -0.04652

 Mulliken atomic charges:
              1
     1  O   -0.798520
     2  O   -1.068668
     3  O   -0.798255
     4  P    0.806261
     5  Ca   1.429628
     6  Ca   1.429554
 Sum of Mulliken charges=   1.00000

 Dipole moment (field-independent basis, Debye):
    X=     0.0007    Y=   -13.0194    Z=    -1.2203  Tot=    13.0765
 Quadrupole moment (field-independent basis, Debye-Ang):
   XX=     4.3708   YY=   -53.9027   ZZ=   -56.6513
   XY=     0.0010   XZ=    -0.0025   YZ=     6.3180

 Normal termination of Gaussian 03 at Fri Jun 12 17:34:40 2015.
