 Gaussian 03, Revision E.01,
 Gaussian 03:  EM64T-G03RevE.01 11-Sep-2007

 ----------------------------------------------------
 # b3lyp/6-31+G(d,p) int=ultrafine pop=(ReadRadii,MK)
 ----------------------------------------------------

 ----------------------------------------
 Ca2PO3_6.mol2c_plusQc.out.z51557.zip.xyz
 ----------------------------------------
 Symbolic Z-matrix:
 Charge =  1 Multiplicity = 1

                         Standard orientation:
 ---------------------------------------------------------------------
 Center     Atomic     Atomic              Coordinates (Angstroms)
 Number     Number      Type              X           Y           Z
 ---------------------------------------------------------------------
    1          8             0        1.317946    1.239474    0.001622
    2          8             0       -1.235204    1.315467   -0.001228
    3          8             0       -0.059840   -1.916769   -0.000058
    4         15             0        0.067320    2.149440   -0.000158
    5         20             0        1.840874   -0.990759   -0.000398
    6         20             0       -1.900525   -0.876590    0.000382
 ---------------------------------------------------------------------

 SCF Done:  E(RB+HF-LYP) =  -1922.13413453     A.U. after    7 cycles

 The electronic state is 1-A.
 Alpha  occ. eigenvalues -- -145.52216-145.52210 -77.29926 -19.27775 -19.27684
 Alpha  occ. eigenvalues --  -19.15024 -15.59104 -15.59099 -12.72354 -12.72349
 Alpha  occ. eigenvalues --  -12.72279 -12.72274 -12.72180 -12.72174  -6.75408
 Alpha  occ. eigenvalues --   -4.91850  -4.91630  -4.91189  -1.96271  -1.96251
 Alpha  occ. eigenvalues --   -1.24081  -1.24060  -1.23942  -1.23741  -1.23414
 Alpha  occ. eigenvalues --   -1.22887  -1.13630  -1.08321  -0.89395  -0.67425
 Alpha  occ. eigenvalues --   -0.56977  -0.52455  -0.52385  -0.45560  -0.43664
 Alpha  occ. eigenvalues --   -0.40561  -0.35627  -0.33613  -0.33417
 Alpha virt. eigenvalues --   -0.20919  -0.19678  -0.19650  -0.12836  -0.11778
 Alpha virt. eigenvalues --   -0.11636  -0.10825  -0.10186  -0.07820  -0.07313
 Alpha virt. eigenvalues --   -0.06401  -0.05944  -0.05384  -0.04881  -0.04594

 Mulliken atomic charges:
              1
     1  O   -0.716888
     2  O   -0.715721
     3  O   -1.199476
     4  P    0.674711
     5  Ca   1.478663
     6  Ca   1.478711
 Sum of Mulliken charges=   1.00000

 Dipole moment (field-independent basis, Debye):
    X=    -0.1468    Y=    -3.9065    Z=    -0.0008  Tot=     3.9093
 Quadrupole moment (field-independent basis, Debye-Ang):
   XX=    -5.6048   YY=   -61.8615   ZZ=   -49.7233
   XY=    -1.7414   XZ=    -0.0254   YZ=    -0.0005

 Normal termination of Gaussian 03 at Fri Jun 12 17:35:05 2015.
