 Gaussian 03, Revision E.01,
 Gaussian 03:  EM64T-G03RevE.01 11-Sep-2007

 ----------------------------------------------------
 # b3lyp/6-31+G(d,p) int=ultrafine pop=(ReadRadii,MK)
 ----------------------------------------------------

 ---------------------------------------
 Ca2PO3_15.mol2_plusQ.out.z51534.zip.xyz
 ---------------------------------------
 Symbolic Z-matrix:
 Charge =  1 Multiplicity = 1

                         Standard orientation:
 ---------------------------------------------------------------------
 Center     Atomic     Atomic              Coordinates (Angstroms)
 Number     Number      Type              X           Y           Z
 ---------------------------------------------------------------------
    1          8             0       -1.327440    1.247630   -0.408681
    2          8             0       -0.000009   -0.724779    0.574369
    3          8             0        1.327480    1.247662   -0.408581
    4         15             0        0.000020    1.119191    0.457519
    5         20             0        2.126581   -0.773817   -0.123001
    6         20             0       -2.126609   -0.773781   -0.122981
 ---------------------------------------------------------------------

 SCF Done:  E(RB+HF-LYP) =  -1922.11511708     A.U. after    9 cycles

 The electronic state is 1-A.
 Alpha  occ. eigenvalues -- -145.55249-145.55246 -77.25375 -19.23089 -19.21326
 Alpha  occ. eigenvalues --  -19.21322 -15.62117 -15.62114 -12.75349 -12.75348
 Alpha  occ. eigenvalues --  -12.75252 -12.75251 -12.75247 -12.75246  -6.70498
 Alpha  occ. eigenvalues --   -4.86938  -4.86770  -4.86350  -1.99209  -1.99204
 Alpha  occ. eigenvalues --   -1.26923  -1.26867  -1.26820  -1.26552  -1.26386
 Alpha  occ. eigenvalues --   -1.26230  -1.07512  -1.02042  -0.99992  -0.62159
 Alpha  occ. eigenvalues --   -0.50867  -0.50189  -0.47810  -0.45052  -0.41388
 Alpha  occ. eigenvalues --   -0.38991  -0.38574  -0.38398  -0.30815
 Alpha virt. eigenvalues --   -0.22939  -0.22530  -0.15326  -0.13941  -0.13374
 Alpha virt. eigenvalues --   -0.12381  -0.11218  -0.09563  -0.07960  -0.06772
 Alpha virt. eigenvalues --   -0.05900  -0.05584  -0.05237  -0.04657  -0.04652

 Mulliken atomic charges:
              1
     1  O   -0.798420
     2  O   -1.068688
     3  O   -0.798329
     4  P    0.806248
     5  Ca   1.429582
     6  Ca   1.429607
 Sum of Mulliken charges=   1.00000

 Dipole moment (field-independent basis, Debye):
    X=     0.0002    Y=   -13.0190    Z=    -1.2207  Tot=    13.0761
 Quadrupole moment (field-independent basis, Debye-Ang):
   XX=     4.3686   YY=   -53.9021   ZZ=   -56.6511
   XY=     0.0004   XZ=    -0.0008   YZ=     6.3182

 Normal termination of Gaussian 03 at Fri Jun 12 17:34:43 2015.
