 Gaussian 03, Revision E.01,
 Gaussian 03:  EM64T-G03RevE.01 11-Sep-2007

 ----------------------------------------------------
 # b3lyp/6-31+G(d,p) int=ultrafine pop=(ReadRadii,MK)
 ----------------------------------------------------

 ---------------------------------------
 Ca2PO3_24.mol2_plusQ.out.z51544.zip.xyz
 ---------------------------------------
 Symbolic Z-matrix:
 Charge =  1 Multiplicity = 1

                         Standard orientation:
 ---------------------------------------------------------------------
 Center     Atomic     Atomic              Coordinates (Angstroms)
 Number     Number      Type              X           Y           Z
 ---------------------------------------------------------------------
    1          8             0        1.682140    1.205904   -0.000098
    2          8             0       -0.259689    0.015242    1.206392
    3          8             0       -0.259599    0.014772   -1.206318
    4         15             0        0.119180    1.182652   -0.000098
    5         20             0       -2.145118   -0.343491    0.000002
    6         20             0        1.590593   -1.037866    0.000082
 ---------------------------------------------------------------------

 SCF Done:  E(RB+HF-LYP) =  -1922.10492681     A.U. after    9 cycles

 The electronic state is 1-A.
 Alpha  occ. eigenvalues -- -145.57785-145.54903 -77.26330 -19.22768 -19.22700
 Alpha  occ. eigenvalues --  -19.21831 -15.64610 -15.61712 -12.77850 -12.77756
 Alpha  occ. eigenvalues --  -12.77741 -12.74898 -12.74888 -12.74874  -6.71705
 Alpha  occ. eigenvalues --   -4.88052  -4.88017  -4.87589  -2.01597  -1.98709
 Alpha  occ. eigenvalues --   -1.29328  -1.28952  -1.28656  -1.26544  -1.25952
 Alpha  occ. eigenvalues --   -1.25949  -1.08725  -1.02511  -1.00435  -0.63349
 Alpha  occ. eigenvalues --   -0.50761  -0.50404  -0.50207  -0.44676  -0.43283
 Alpha  occ. eigenvalues --   -0.40100  -0.38492  -0.36471  -0.33910
 Alpha virt. eigenvalues --   -0.24120  -0.21781  -0.16319  -0.14446  -0.13105
 Alpha virt. eigenvalues --   -0.12336  -0.10459  -0.08307  -0.08100  -0.07090
 Alpha virt. eigenvalues --   -0.06602  -0.06403  -0.05488  -0.05411  -0.04906

 Mulliken atomic charges:
              1
     1  O   -0.853927
     2  O   -0.899429
     3  O   -0.900600
     4  P    0.817837
     5  Ca   1.457436
     6  Ca   1.378682
 Sum of Mulliken charges=   1.00000

 Dipole moment (field-independent basis, Debye):
    X=    -6.1693    Y=   -11.0961    Z=     0.0064  Tot=    12.6958
 Quadrupole moment (field-independent basis, Debye-Ang):
   XX=    -5.5217   YY=   -45.8941   ZZ=   -64.1569
   XY=   -11.4002   XZ=     0.0007   YZ=    -0.0008

 Normal termination of Gaussian 03 at Fri Jun 12 17:34:40 2015.
