 Gaussian 03, Revision E.01,
 Gaussian 03:  EM64T-G03RevE.01 11-Sep-2007

 ----------------------------------------------------
 # b3lyp/6-31+G(d,p) int=ultrafine pop=(ReadRadii,MK)
 ----------------------------------------------------

 ------------------------------------------
 Ca2PO3_27.mol2cc_plusQc.out.z51547.zip.xyz
 ------------------------------------------
 Symbolic Z-matrix:
 Charge =  1 Multiplicity = 1

                         Standard orientation:
 ---------------------------------------------------------------------
 Center     Atomic     Atomic              Coordinates (Angstroms)
 Number     Number      Type              X           Y           Z
 ---------------------------------------------------------------------
    1          8             0        1.287057    1.268652   -0.000341
    2          8             0       -1.266983    1.287108    0.001329
    3          8             0       -0.014513   -1.916960   -0.000411
    4         15             0        0.016333    2.150240   -0.000451
    5         20             0        1.864663   -0.947942    0.000279
    6         20             0       -1.879137   -0.920258   -0.000171
 ---------------------------------------------------------------------

 SCF Done:  E(RB+HF-LYP) =  -1922.13413613     A.U. after    7 cycles

 The electronic state is 1-A.
 Alpha  occ. eigenvalues -- -145.52213-145.52211 -77.29920 -19.27736 -19.27714
 Alpha  occ. eigenvalues --  -19.15030 -15.59101 -15.59099 -12.72351 -12.72349
 Alpha  occ. eigenvalues --  -12.72276 -12.72274 -12.72177 -12.72174  -6.75402
 Alpha  occ. eigenvalues --   -4.91845  -4.91625  -4.91184  -1.96270  -1.96250
 Alpha  occ. eigenvalues --   -1.24080  -1.24059  -1.23940  -1.23740  -1.23413
 Alpha  occ. eigenvalues --   -1.22887  -1.13628  -1.08318  -0.89398  -0.67422
 Alpha  occ. eigenvalues --   -0.56975  -0.52452  -0.52383  -0.45557  -0.43661
 Alpha  occ. eigenvalues --   -0.40557  -0.35631  -0.33616  -0.33418
 Alpha virt. eigenvalues --   -0.20920  -0.19674  -0.19651  -0.12835  -0.11778
 Alpha virt. eigenvalues --   -0.11634  -0.10826  -0.10187  -0.07820  -0.07312
 Alpha virt. eigenvalues --   -0.06400  -0.05943  -0.05384  -0.04881  -0.04592

 Mulliken atomic charges:
              1
     1  O   -0.716420
     2  O   -0.716121
     3  O   -1.199799
     4  P    0.674615
     5  Ca   1.478857
     6  Ca   1.478868
 Sum of Mulliken charges=   1.00000

 Dipole moment (field-independent basis, Debye):
    X=    -0.0358    Y=    -3.9112    Z=     0.0004  Tot=     3.9113
 Quadrupole moment (field-independent basis, Debye-Ang):
   XX=    -5.5273   YY=   -61.9004   ZZ=   -49.7214
   XY=    -0.4225   XZ=     0.0147   YZ=    -0.0075

 Normal termination of Gaussian 03 at Fri Jun 12 17:34:36 2015.
