 Gaussian 03, Revision E.01,
 Gaussian 03:  EM64T-G03RevE.01 11-Sep-2007

 ----------------------------------------------------
 # b3lyp/6-31+G(d,p) int=ultrafine pop=(ReadRadii,MK)
 ----------------------------------------------------

 ----------------------------------------
 Ca2PO3_19.mol2c_plusQ.out.z51538.zip.xyz
 ----------------------------------------
 Symbolic Z-matrix:
 Charge =  1 Multiplicity = 1

                         Standard orientation:
 ---------------------------------------------------------------------
 Center     Atomic     Atomic              Coordinates (Angstroms)
 Number     Number      Type              X           Y           Z
 ---------------------------------------------------------------------
    1          8             0        0.000000   -0.724549    0.574229
    2          8             0       -1.327382    1.247589   -0.408631
    3          8             0        1.327408    1.247613   -0.408581
    4         15             0       -0.000002    1.118981    0.457499
    5         20             0       -2.126829   -0.773742   -0.122961
    6         20             0        2.126821   -0.773756   -0.122971
 ---------------------------------------------------------------------

 SCF Done:  E(RB+HF-LYP) =  -1922.11511703     A.U. after    9 cycles

 The electronic state is 1-A.
 Alpha  occ. eigenvalues -- -145.55250-145.55248 -77.25374 -19.23091 -19.21322
 Alpha  occ. eigenvalues --  -19.21322 -15.62119 -15.62116 -12.75350 -12.75350
 Alpha  occ. eigenvalues --  -12.75253 -12.75253 -12.75248 -12.75248  -6.70497
 Alpha  occ. eigenvalues --   -4.86937  -4.86769  -4.86349  -1.99211  -1.99205
 Alpha  occ. eigenvalues --   -1.26925  -1.26868  -1.26821  -1.26553  -1.26387
 Alpha  occ. eigenvalues --   -1.26232  -1.07515  -1.02042  -0.99997  -0.62158
 Alpha  occ. eigenvalues --   -0.50870  -0.50190  -0.47812  -0.45055  -0.41390
 Alpha  occ. eigenvalues --   -0.38989  -0.38574  -0.38398  -0.30812
 Alpha virt. eigenvalues --   -0.22939  -0.22531  -0.15326  -0.13942  -0.13375
 Alpha virt. eigenvalues --   -0.12382  -0.11218  -0.09564  -0.07960  -0.06772
 Alpha virt. eigenvalues --   -0.05896  -0.05584  -0.05237  -0.04657  -0.04652

 Mulliken atomic charges:
              1
     1  O   -1.068587
     2  O   -0.798394
     3  O   -0.798400
     4  P    0.806314
     5  Ca   1.429535
     6  Ca   1.429532
 Sum of Mulliken charges=   1.00000

 Dipole moment (field-independent basis, Debye):
    X=    -0.0001    Y=   -13.0188    Z=    -1.2190  Tot=    13.0757
 Quadrupole moment (field-independent basis, Debye-Ang):
   XX=     4.3765   YY=   -53.9050   ZZ=   -56.6524
   XY=    -0.0003   XZ=    -0.0003   YZ=     6.3150

 Normal termination of Gaussian 03 at Fri Jun 12 17:34:40 2015.
