 Gaussian 03, Revision E.01,
 Gaussian 03:  EM64T-G03RevE.01 11-Sep-2007

 ----------------------------------------------------
 # b3lyp/6-31+G(d,p) int=ultrafine pop=(ReadRadii,MK)
 ----------------------------------------------------

 ------------------------------------------
 Ca2PO3_12.mol2cc_plusQc.out.z51532.zip.xyz
 ------------------------------------------
 Symbolic Z-matrix:
 Charge =  1 Multiplicity = 1

                         Standard orientation:
 ---------------------------------------------------------------------
 Center     Atomic     Atomic              Coordinates (Angstroms)
 Number     Number      Type              X           Y           Z
 ---------------------------------------------------------------------
    1          8             0       -1.275953    1.279157    0.000205
    2          8             0        1.278095    1.277011    0.000243
    3          8             0       -0.001569   -1.917756   -0.000169
    4         15             0        0.001766    2.150533   -0.000200
    5         20             0        1.870911   -0.935602    0.000014
    6         20             0       -1.872465   -0.932662    0.000024
 ---------------------------------------------------------------------

 SCF Done:  E(RB+HF-LYP) =  -1922.13413624     A.U. after    7 cycles

 The electronic state is 1-A.
 Alpha  occ. eigenvalues -- -145.52216-145.52214 -77.29923 -19.27729 -19.27728
 Alpha  occ. eigenvalues --  -19.15034 -15.59104 -15.59102 -12.72354 -12.72352
 Alpha  occ. eigenvalues --  -12.72278 -12.72277 -12.72180 -12.72177  -6.75405
 Alpha  occ. eigenvalues --   -4.91848  -4.91628  -4.91187  -1.96272  -1.96253
 Alpha  occ. eigenvalues --   -1.24083  -1.24062  -1.23943  -1.23742  -1.23415
 Alpha  occ. eigenvalues --   -1.22889  -1.13631  -1.08321  -0.89401  -0.67424
 Alpha  occ. eigenvalues --   -0.56977  -0.52456  -0.52385  -0.45560  -0.43663
 Alpha  occ. eigenvalues --   -0.40561  -0.35632  -0.33617  -0.33421
 Alpha virt. eigenvalues --   -0.20921  -0.19677  -0.19651  -0.12837  -0.11779
 Alpha virt. eigenvalues --   -0.11637  -0.10826  -0.10187  -0.07821  -0.07313
 Alpha virt. eigenvalues --   -0.06401  -0.05944  -0.05384  -0.04882  -0.04593

 Mulliken atomic charges:
              1
     1  O   -0.716285
     2  O   -0.716348
     3  O   -1.199735
     4  P    0.674734
     5  Ca   1.478816
     6  Ca   1.478817
 Sum of Mulliken charges=   1.00000

 Dipole moment (field-independent basis, Debye):
    X=    -0.0039    Y=    -3.9071    Z=     0.0000  Tot=     3.9071
 Quadrupole moment (field-independent basis, Debye-Ang):
   XX=    -5.5381   YY=   -61.9159   ZZ=   -49.7216
   XY=    -0.0446   XZ=    -0.0003   YZ=    -0.0031

 Normal termination of Gaussian 03 at Fri Jun 12 17:34:36 2015.
