 Gaussian 03, Revision E.01,
 Gaussian 03:  EM64T-G03RevE.01 11-Sep-2007

 ----------------------------------------------------
 # b3lyp/6-31+G(d,p) int=ultrafine pop=(ReadRadii,MK)
 ----------------------------------------------------

 --------------------------------------
 Ca2PO3_8.mol2_plusQ.out.z51559.zip.xyz
 --------------------------------------
 Symbolic Z-matrix:
 Charge =  1 Multiplicity = 1

                         Standard orientation:
 ---------------------------------------------------------------------
 Center     Atomic     Atomic              Coordinates (Angstroms)
 Number     Number      Type              X           Y           Z
 ---------------------------------------------------------------------
    1          8             0       -1.682074    1.206123   -0.000171
    2          8             0        0.259860    0.015480    1.206589
    3          8             0        0.259670    0.014600   -1.206461
    4         15             0       -0.119224    1.182839   -0.000201
    5         20             0       -1.590916   -1.037987    0.000159
    6         20             0        2.145351   -0.343623    0.000009
 ---------------------------------------------------------------------

 SCF Done:  E(RB+HF-LYP) =  -1922.10492678     A.U. after    9 cycles

 The electronic state is 1-A.
 Alpha  occ. eigenvalues -- -145.57785-145.54909 -77.26332 -19.22778 -19.22690
 Alpha  occ. eigenvalues --  -19.21838 -15.64610 -15.61718 -12.77850 -12.77756
 Alpha  occ. eigenvalues --  -12.77741 -12.74904 -12.74894 -12.74880  -6.71707
 Alpha  occ. eigenvalues --   -4.88054  -4.88018  -4.87591  -2.01596  -1.98714
 Alpha  occ. eigenvalues --   -1.29327  -1.28950  -1.28655  -1.26546  -1.25956
 Alpha  occ. eigenvalues --   -1.25953  -1.08723  -1.02512  -1.00428  -0.63348
 Alpha  occ. eigenvalues --   -0.50761  -0.50400  -0.50204  -0.44672  -0.43279
 Alpha  occ. eigenvalues --   -0.40102  -0.38493  -0.36469  -0.33910
 Alpha virt. eigenvalues --   -0.24119  -0.21783  -0.16319  -0.14446  -0.13106
 Alpha virt. eigenvalues --   -0.12337  -0.10460  -0.08309  -0.08099  -0.07090
 Alpha virt. eigenvalues --   -0.06604  -0.06404  -0.05488  -0.05411  -0.04906

 Mulliken atomic charges:
              1
     1  O   -0.853912
     2  O   -0.899336
     3  O   -0.900892
     4  P    0.817841
     5  Ca   1.378815
     6  Ca   1.457485
 Sum of Mulliken charges=   1.00000

 Dipole moment (field-independent basis, Debye):
    X=     6.1674    Y=   -11.0989    Z=     0.0087  Tot=    12.6974
 Quadrupole moment (field-independent basis, Debye-Ang):
   XX=    -5.5024   YY=   -45.8912   ZZ=   -64.1619
   XY=    11.4023   XZ=    -0.0018   YZ=    -0.0026

 Normal termination of Gaussian 03 at Fri Jun 12 17:35:13 2015.
