 Gaussian 03, Revision E.01,
 Gaussian 03:  EM64T-G03RevE.01 11-Sep-2007

 ----------------------------------------------------
 # b3lyp/6-31+G(d,p) int=ultrafine pop=(ReadRadii,MK)
 ----------------------------------------------------

 ---------------------------------------
 Ca2PO3_28.mol2_plusQ.out.z51548.zip.xyz
 ---------------------------------------
 Symbolic Z-matrix:
 Charge =  1 Multiplicity = 1

                         Standard orientation:
 ---------------------------------------------------------------------
 Center     Atomic     Atomic              Coordinates (Angstroms)
 Number     Number      Type              X           Y           Z
 ---------------------------------------------------------------------
    1          8             0        0.259601    0.014100   -1.206370
    2          8             0        0.260111    0.015410    1.206500
    3          8             0       -1.681315    1.206826    0.000040
    4         15             0       -0.118435    1.182341   -0.000450
    5         20             0        2.145540   -0.343946    0.000040
    6         20             0       -1.592072   -1.037344    0.000230
 ---------------------------------------------------------------------

 SCF Done:  E(RB+HF-LYP) =  -1922.10492105     A.U. after    9 cycles

 The electronic state is 1-A.
 Alpha  occ. eigenvalues -- -145.57785-145.54915 -77.26374 -19.22837 -19.22679
 Alpha  occ. eigenvalues --  -19.21900 -15.64611 -15.61723 -12.77852 -12.77757
 Alpha  occ. eigenvalues --  -12.77742 -12.74909 -12.74900 -12.74886  -6.71744
 Alpha  occ. eigenvalues --   -4.88092  -4.88056  -4.87629  -2.01599  -1.98718
 Alpha  occ. eigenvalues --   -1.29331  -1.28954  -1.28659  -1.26552  -1.25961
 Alpha  occ. eigenvalues --   -1.25958  -1.08759  -1.02547  -1.00459  -0.63379
 Alpha  occ. eigenvalues --   -0.50798  -0.50430  -0.50236  -0.44699  -0.43307
 Alpha  occ. eigenvalues --   -0.40134  -0.38525  -0.36492  -0.33934
 Alpha virt. eigenvalues --   -0.24118  -0.21788  -0.16319  -0.14447  -0.13109
 Alpha virt. eigenvalues --   -0.12342  -0.10462  -0.08315  -0.08102  -0.07103
 Alpha virt. eigenvalues --   -0.06620  -0.06407  -0.05489  -0.05413  -0.04909

 Mulliken atomic charges:
              1
     1  O   -0.899217
     2  O   -0.901621
     3  O   -0.855151
     4  P    0.817180
     5  Ca   1.458524
     6  Ca   1.380284
 Sum of Mulliken charges=   1.00000

 Dipole moment (field-independent basis, Debye):
    X=     6.1708    Y=   -11.1259    Z=    -0.0116  Tot=    12.7226
 Quadrupole moment (field-independent basis, Debye-Ang):
   XX=    -5.4206   YY=   -45.8923   ZZ=   -64.1434
   XY=    11.4097   XZ=    -0.0058   YZ=    -0.0119

 Normal termination of Gaussian 03 at Fri Jun 12 17:34:40 2015.
