 Gaussian 03, Revision E.01,
 Gaussian 03:  EM64T-G03RevE.01 11-Sep-2007

 ----------------------------------------------------
 # b3lyp/6-31+G(d,p) int=ultrafine pop=(ReadRadii,MK)
 ----------------------------------------------------

 -----------------------------------------
 Ca2PO3_11.mol2_plusQcc.out.z51531.zip.xyz
 -----------------------------------------
 Symbolic Z-matrix:
 Charge =  1 Multiplicity = 1

                         Standard orientation:
 ---------------------------------------------------------------------
 Center     Atomic     Atomic              Coordinates (Angstroms)
 Number     Number      Type              X           Y           Z
 ---------------------------------------------------------------------
    1          8             0       -1.272886    1.281834   -0.000039
    2          8             0        1.281283    1.274175    0.000075
    3          8             0       -0.006046   -1.917421   -0.000014
    4         15             0        0.006804    2.150405   -0.000016
    5         20             0       -1.874777   -0.928340    0.000017
    6         20             0        1.868734   -0.939899   -0.000014
 ---------------------------------------------------------------------

 SCF Done:  E(RB+HF-LYP) =  -1922.13413625     A.U. after    7 cycles

 The electronic state is 1-A.
 Alpha  occ. eigenvalues -- -145.52214-145.52213 -77.29923 -19.27734 -19.27722
 Alpha  occ. eigenvalues --  -19.15033 -15.59101 -15.59101 -12.72351 -12.72351
 Alpha  occ. eigenvalues --  -12.72276 -12.72276 -12.72178 -12.72176  -6.75405
 Alpha  occ. eigenvalues --   -4.91848  -4.91627  -4.91187  -1.96271  -1.96251
 Alpha  occ. eigenvalues --   -1.24081  -1.24060  -1.23941  -1.23741  -1.23414
 Alpha  occ. eigenvalues --   -1.22888  -1.13629  -1.08320  -0.89400  -0.67424
 Alpha  occ. eigenvalues --   -0.56976  -0.52454  -0.52384  -0.45559  -0.43663
 Alpha  occ. eigenvalues --   -0.40560  -0.35632  -0.33617  -0.33420
 Alpha virt. eigenvalues --   -0.20920  -0.19677  -0.19651  -0.12836  -0.11779
 Alpha virt. eigenvalues --   -0.11636  -0.10826  -0.10187  -0.07820  -0.07313
 Alpha virt. eigenvalues --   -0.06401  -0.05944  -0.05384  -0.04881  -0.04593

 Mulliken atomic charges:
              1
     1  O   -0.716216
     2  O   -0.716406
     3  O   -1.199754
     4  P    0.674728
     5  Ca   1.478829
     6  Ca   1.478819
 Sum of Mulliken charges=   1.00000

 Dipole moment (field-independent basis, Debye):
    X=    -0.0154    Y=    -3.9088    Z=     0.0000  Tot=     3.9088
 Quadrupole moment (field-independent basis, Debye-Ang):
   XX=    -5.5355   YY=   -61.9097   ZZ=   -49.7214
   XY=    -0.1770   XZ=    -0.0010   YZ=    -0.0003

 Normal termination of Gaussian 03 at Fri Jun 12 17:34:36 2015.
