 Gaussian 03, Revision E.01,
 Gaussian 03:  EM64T-G03RevE.01 11-Sep-2007

 ----------------------------------------------------
 # b3lyp/6-31+G(d,p) int=ultrafine pop=(ReadRadii,MK)
 ----------------------------------------------------

 --------------------------------------
 Ca2PO3_2.mol2_plusQ.out.z51550.zip.xyz
 --------------------------------------
 Symbolic Z-matrix:
 Charge =  1 Multiplicity = 1

                         Standard orientation:
 ---------------------------------------------------------------------
 Center     Atomic     Atomic              Coordinates (Angstroms)
 Number     Number      Type              X           Y           Z
 ---------------------------------------------------------------------
    1          8             0        0.000021    0.935882   -1.045747
    2          8             0        0.000010   -1.600918    0.120373
    3          8             0        0.000081   -0.571558    1.228273
    4         15             0       -0.000049    1.547432    0.502753
    5         20             0       -1.828589   -0.332987   -0.249107
    6         20             0        1.828581   -0.332949   -0.249117
 ---------------------------------------------------------------------

 SCF Done:  E(RB+HF-LYP) =  -1921.96184683     A.U. after    7 cycles

 The electronic state is 1-A.
 Alpha  occ. eigenvalues -- -145.55207-145.55201 -77.22321 -19.29861 -19.28060
 Alpha  occ. eigenvalues --  -19.24957 -15.61992 -15.61987 -12.75198 -12.75197
 Alpha  occ. eigenvalues --  -12.75175 -12.75174 -12.75142 -12.75141  -6.68779
 Alpha  occ. eigenvalues --   -4.85380  -4.84983  -4.84214  -1.99000  -1.98968
 Alpha  occ. eigenvalues --   -1.27710  -1.26499  -1.26455  -1.26370  -1.26214
 Alpha  occ. eigenvalues --   -1.26049  -1.13468  -1.06200  -0.91803  -0.65472
 Alpha  occ. eigenvalues --   -0.53658  -0.51586  -0.51470  -0.47849  -0.45473
 Alpha  occ. eigenvalues --   -0.42775  -0.38626  -0.36971  -0.29682
 Alpha virt. eigenvalues --   -0.22501  -0.20752  -0.18969  -0.14142  -0.12620
 Alpha virt. eigenvalues --   -0.11980  -0.11852  -0.10261  -0.08378  -0.08120
 Alpha virt. eigenvalues --   -0.07350  -0.06936  -0.06224  -0.05365  -0.05190

 Mulliken atomic charges:
              1
     1  O   -0.679812
     2  O   -0.616718
     3  O   -0.466601
     4  P   -0.131508
     5  Ca   1.447307
     6  Ca   1.447332
 Sum of Mulliken charges=   1.00000

 Dipole moment (field-independent basis, Debye):
    X=     0.0002    Y=    -3.4602    Z=    -4.1791  Tot=     5.4256
 Quadrupole moment (field-independent basis, Debye-Ang):
   XX=    -1.4671   YY=   -62.2092   ZZ=   -58.2945
   XY=     0.0008   XZ=    -0.0002   YZ=     5.2269

 Normal termination of Gaussian 03 at Fri Jun 12 17:34:36 2015.
