 Gaussian 03, Revision E.01,
 Gaussian 03:  EM64T-G03RevE.01 11-Sep-2007

 ----------------------------------------------------
 # b3lyp/6-31+G(d,p) int=ultrafine pop=(ReadRadii,MK)
 ----------------------------------------------------

 --------------------------------------
 Ca2PO3_7.mol2_plusQ.out.z51558.zip.xyz
 --------------------------------------
 Symbolic Z-matrix:
 Charge =  1 Multiplicity = 1

                         Standard orientation:
 ---------------------------------------------------------------------
 Center     Atomic     Atomic              Coordinates (Angstroms)
 Number     Number      Type              X           Y           Z
 ---------------------------------------------------------------------
    1          8             0       -1.682181    1.205823   -0.000019
    2          8             0        0.259728    0.015071    1.206391
    3          8             0        0.259698    0.014941   -1.206369
    4         15             0       -0.119191    1.182711   -0.000029
    5         20             0        2.145178   -0.343520    0.000000
    6         20             0       -1.590683   -1.037847    0.000021
 ---------------------------------------------------------------------

 SCF Done:  E(RB+HF-LYP) =  -1922.10492709     A.U. after    9 cycles

 The electronic state is 1-A.
 Alpha  occ. eigenvalues -- -145.57784-145.54903 -77.26326 -19.22734 -19.22728
 Alpha  occ. eigenvalues --  -19.21825 -15.64609 -15.61712 -12.77850 -12.77755
 Alpha  occ. eigenvalues --  -12.77740 -12.74898 -12.74888 -12.74874  -6.71701
 Alpha  occ. eigenvalues --   -4.88048  -4.88013  -4.87585  -2.01596  -1.98709
 Alpha  occ. eigenvalues --   -1.29327  -1.28950  -1.28655  -1.26543  -1.25952
 Alpha  occ. eigenvalues --   -1.25949  -1.08719  -1.02507  -1.00430  -0.63345
 Alpha  occ. eigenvalues --   -0.50757  -0.50399  -0.50202  -0.44672  -0.43279
 Alpha  occ. eigenvalues --   -0.40097  -0.38488  -0.36468  -0.33908
 Alpha virt. eigenvalues --   -0.24120  -0.21780  -0.16319  -0.14446  -0.13104
 Alpha virt. eigenvalues --   -0.12335  -0.10459  -0.08307  -0.08099  -0.07089
 Alpha virt. eigenvalues --   -0.06601  -0.06403  -0.05488  -0.05411  -0.04905

 Mulliken atomic charges:
              1
     1  O   -0.853818
     2  O   -0.899945
     3  O   -0.900071
     4  P    0.817920
     5  Ca   1.457338
     6  Ca   1.378576
 Sum of Mulliken charges=   1.00000

 Dipole moment (field-independent basis, Debye):
    X=     6.1678    Y=   -11.0934    Z=     0.0007  Tot=    12.6927
 Quadrupole moment (field-independent basis, Debye-Ang):
   XX=    -5.5221   YY=   -45.8949   ZZ=   -64.1593
   XY=    11.3994   XZ=    -0.0003   YZ=    -0.0005

 Normal termination of Gaussian 03 at Fri Jun 12 17:35:04 2015.
