 Gaussian 03, Revision E.01,
 Gaussian 03:  EM64T-G03RevE.01 11-Sep-2007

 ----------------------------------------------------
 # b3lyp/6-31+G(d,p) int=ultrafine pop=(ReadRadii,MK)
 ----------------------------------------------------

 ----------------------------------------
 Ca2PO3_21.mol2_plusQc.out.z51541.zip.xyz
 ----------------------------------------
 Symbolic Z-matrix:
 Charge =  1 Multiplicity = 1

                         Standard orientation:
 ---------------------------------------------------------------------
 Center     Atomic     Atomic              Coordinates (Angstroms)
 Number     Number      Type              X           Y           Z
 ---------------------------------------------------------------------
    1          8             0        1.241560    1.309540    0.002441
    2          8             0        0.050496   -1.916601   -0.001179
    3          8             0       -1.311660    1.245509    0.000741
    4         15             0       -0.056914    2.149790   -0.001419
    5         20             0        1.896524   -0.885555   -0.000099
    6         20             0       -1.845997   -0.982167    0.000361
 ---------------------------------------------------------------------

 SCF Done:  E(RB+HF-LYP) =  -1922.13413473     A.U. after    7 cycles

 The electronic state is 1-A.
 Alpha  occ. eigenvalues -- -145.52217-145.52209 -77.29923 -19.27769 -19.27680
 Alpha  occ. eigenvalues --  -19.15023 -15.59104 -15.59097 -12.72354 -12.72348
 Alpha  occ. eigenvalues --  -12.72279 -12.72272 -12.72180 -12.72173  -6.75404
 Alpha  occ. eigenvalues --   -4.91847  -4.91627  -4.91186  -1.96270  -1.96250
 Alpha  occ. eigenvalues --   -1.24080  -1.24059  -1.23940  -1.23740  -1.23413
 Alpha  occ. eigenvalues --   -1.22887  -1.13626  -1.08315  -0.89393  -0.67421
 Alpha  occ. eigenvalues --   -0.56972  -0.52451  -0.52381  -0.45555  -0.43658
 Alpha  occ. eigenvalues --   -0.40559  -0.35626  -0.33611  -0.33413
 Alpha virt. eigenvalues --   -0.20919  -0.19675  -0.19650  -0.12834  -0.11778
 Alpha virt. eigenvalues --   -0.11634  -0.10825  -0.10187  -0.07820  -0.07312
 Alpha virt. eigenvalues --   -0.06401  -0.05943  -0.05384  -0.04882  -0.04592

 Mulliken atomic charges:
              1
     1  O   -0.715742
     2  O   -1.199623
     3  O   -0.716908
     4  P    0.674690
     5  Ca   1.478840
     6  Ca   1.478743
 Sum of Mulliken charges=   1.00000

 Dipole moment (field-independent basis, Debye):
    X=     0.1268    Y=    -3.9091    Z=     0.0001  Tot=     3.9112
 Quadrupole moment (field-independent basis, Debye-Ang):
   XX=    -5.5698   YY=   -61.8652   ZZ=   -49.7232
   XY=     1.4747   XZ=    -0.0144   YZ=    -0.0218

 Normal termination of Gaussian 03 at Fri Jun 12 17:34:39 2015.
