 Gaussian 03, Revision E.01,
 Gaussian 03:  EM64T-G03RevE.01 11-Sep-2007

 ----------------------------------------------------
 # b3lyp/6-31+G(d,p) int=ultrafine pop=(ReadRadii,MK)
 ----------------------------------------------------

 ----------------------------------------
 Ca2PO3_16.mol2c_plusQ.out.z51535.zip.xyz
 ----------------------------------------
 Symbolic Z-matrix:
 Charge =  1 Multiplicity = 1

                         Standard orientation:
 ---------------------------------------------------------------------
 Center     Atomic     Atomic              Coordinates (Angstroms)
 Number     Number      Type              X           Y           Z
 ---------------------------------------------------------------------
    1          8             0        1.411476    0.862315   -0.784289
    2          8             0       -0.783458   -1.101852   -0.000039
    3          8             0        1.411266    0.862135    0.784541
    4         15             0       -2.343039   -0.801937    0.000031
    5         20             0       -0.571826    1.564059   -0.000059
    6         20             0        1.513392   -1.211645   -0.000049
 ---------------------------------------------------------------------

 SCF Done:  E(RB+HF-LYP) =  -1921.96553616     A.U. after   11 cycles

 The electronic state is 1-A.
 Alpha  occ. eigenvalues -- -145.54744-145.52687 -77.26758 -19.30982 -19.25319
 Alpha  occ. eigenvalues --  -19.25226 -15.61535 -15.59591 -12.74746 -12.74724
 Alpha  occ. eigenvalues --  -12.74669 -12.72812 -12.72804 -12.72668  -6.73047
 Alpha  occ. eigenvalues --   -4.89765  -4.89256  -4.88381  -1.98607  -1.96739
 Alpha  occ. eigenvalues --   -1.26673  -1.26094  -1.26084  -1.24418  -1.24318
 Alpha  occ. eigenvalues --   -1.23958  -1.12536  -1.08065  -0.89153  -0.69198
 Alpha  occ. eigenvalues --   -0.52589  -0.51460  -0.51365  -0.48689  -0.47476
 Alpha  occ. eigenvalues --   -0.45499  -0.36418  -0.34059  -0.31406
 Alpha virt. eigenvalues --   -0.25626  -0.21655  -0.19467  -0.14855  -0.13247
 Alpha virt. eigenvalues --   -0.11989  -0.11078  -0.10309  -0.09024  -0.08430
 Alpha virt. eigenvalues --   -0.07495  -0.06698  -0.05876  -0.05587  -0.05460

 Mulliken atomic charges:
              1
     1  O   -0.641982
     2  O   -0.590539
     3  O   -0.643982
     4  P    0.039614
     5  Ca   1.322777
     6  Ca   1.514112
 Sum of Mulliken charges=   1.00000

 Dipole moment (field-independent basis, Debye):
    X=     1.0349    Y=    -1.9092    Z=    -0.0091  Tot=     2.1717
 Quadrupole moment (field-independent basis, Debye-Ang):
   XX=   -46.4862   YY=   -30.0493   ZZ=   -53.7923
   XY=   -29.3190   XZ=    -0.0111   YZ=    -0.0070

 Normal termination of Gaussian 03 at Fri Jun 12 17:34:46 2015.
