 Gaussian 03, Revision E.01,
 Gaussian 03:  EM64T-G03RevE.01 11-Sep-2007

 ----------------------------------------------------
 # b3lyp/6-31+G(d,p) int=ultrafine pop=(ReadRadii,MK)
 ----------------------------------------------------

 -------------------------------------
 Ca3PO4_122.mol2c_plusQ.z51124.zip.xyz
 -------------------------------------
 Symbolic Z-matrix:
 Charge =  1 Multiplicity = 1

                         Standard orientation:
 ---------------------------------------------------------------------
 Center     Atomic     Atomic              Coordinates (Angstroms)
 Number     Number      Type              X           Y           Z
 ---------------------------------------------------------------------
    1          8             0       -2.090670   -0.006604   -0.511889
    2          8             0       -1.076488   -0.312226   -1.549009
    3          8             0        1.300380    1.244761   -0.121099
    4          8             0       -0.230820   -1.420300   -1.068969
    5         15             0        1.071145    0.654910    1.576181
    6         20             0       -1.141810   -1.401457    1.091101
    7         20             0        1.980435   -0.774314   -0.694239
    8         20             0       -0.802944    1.882336   -0.278609
 ---------------------------------------------------------------------

 SCF Done:  E(RB+HF-LYP) =  -2674.74522877     A.U. after    9 cycles

 The electronic state is 1-A.
 Alpha  occ. eigenvalues -- -145.52283-145.51799-145.50800 -77.15440 -19.36568
 Alpha  occ. eigenvalues --  -19.27766 -19.27504 -19.20713 -15.59133 -15.58629
 Alpha  occ. eigenvalues --  -15.57714 -12.72350 -12.72300 -12.72268 -12.71857
 Alpha  occ. eigenvalues --  -12.71834 -12.71728 -12.70904 -12.70896 -12.70825
 Alpha  occ. eigenvalues --   -6.61995  -4.78486  -4.77924  -4.77804  -1.96276
 Alpha  occ. eigenvalues --   -1.95775  -1.94941  -1.25212  -1.23855  -1.23814
 Alpha  occ. eigenvalues --   -1.23574  -1.23368  -1.23045  -1.22599  -1.22447
 Alpha  occ. eigenvalues --   -1.22118  -1.19858  -1.03845  -0.99581  -0.87980
 Alpha  occ. eigenvalues --   -0.61288  -0.58812  -0.56135  -0.54173  -0.43922
 Alpha  occ. eigenvalues --   -0.43149  -0.42284  -0.41894  -0.41163  -0.40590
 Alpha  occ. eigenvalues --   -0.34736  -0.28067  -0.26908
 Alpha virt. eigenvalues --   -0.20684  -0.19000  -0.18778  -0.14956  -0.13868
 Alpha virt. eigenvalues --   -0.12278  -0.11099  -0.10283  -0.09812  -0.09300
 Alpha virt. eigenvalues --   -0.09011  -0.07349  -0.07015  -0.06662  -0.05938

 Mulliken atomic charges:
              1
     1  O   -0.652666
     2  O    0.030861
     3  O   -0.758723
     4  O   -0.640033
     5  P   -0.522422
     6  Ca   0.972784
     7  Ca   1.246904
     8  Ca   1.323295
 Sum of Mulliken charges=   1.00000

 Dipole moment (field-independent basis, Debye):
    X=     0.2191    Y=    -0.9437    Z=    -2.0187  Tot=     2.2391
 Quadrupole moment (field-independent basis, Debye-Ang):
   XX=   -57.2104   YY=   -46.1583   ZZ=   -78.3086
   XY=   -18.3272   XZ=   -25.3523   YZ=   -15.2784

 Normal termination of Gaussian 03 at Fri Jun 12 17:36:33 2015.
