 Gaussian 03, Revision E.01,
 Gaussian 03:  EM64T-G03RevE.01 11-Sep-2007

 ----------------------------------------------------
 # b3lyp/6-31+G(d,p) int=ultrafine pop=(ReadRadii,MK)
 ----------------------------------------------------

 -------------------------------------
 Ca3PO4_116.mol2c_plusQ.z51117.zip.xyz
 -------------------------------------
 Symbolic Z-matrix:
 Charge =  1 Multiplicity = 1

                         Standard orientation:
 ---------------------------------------------------------------------
 Center     Atomic     Atomic              Coordinates (Angstroms)
 Number     Number      Type              X           Y           Z
 ---------------------------------------------------------------------
    1          8             0        2.776109   -0.522202    0.420420
    2          8             0        2.299729   -0.070442   -0.918780
    3          8             0        1.656079   -0.268222    1.373750
    4          8             0       -1.332261   -0.816281   -0.241840
    5         15             0       -1.246120    0.880429   -0.929280
    6         20             0       -3.319051   -0.047990    0.487280
    7         20             0        1.340610    1.713928    0.206260
    8         20             0        0.753169   -1.655401   -0.250000
 ---------------------------------------------------------------------

 SCF Done:  E(RB+HF-LYP) =  -2674.73729372     A.U. after   10 cycles

 The electronic state is 1-A.
 Alpha  occ. eigenvalues -- -145.53547-145.50105-145.49803 -77.15714 -19.34830
 Alpha  occ. eigenvalues --  -19.25828 -19.25828 -19.21432 -15.60458 -15.56992
 Alpha  occ. eigenvalues --  -15.56627 -12.73673 -12.73630 -12.73559 -12.70192
 Alpha  occ. eigenvalues --  -12.70168 -12.70113 -12.69856 -12.69826 -12.69727
 Alpha  occ. eigenvalues --   -6.62301  -4.78832  -4.78289  -4.78019  -1.97497
 Alpha  occ. eigenvalues --   -1.94175  -1.93832  -1.25038  -1.24764  -1.24703
 Alpha  occ. eigenvalues --   -1.24660  -1.21643  -1.21535  -1.21401  -1.21292
 Alpha  occ. eigenvalues --   -1.21148  -1.17324  -1.01709  -0.99579  -0.86196
 Alpha  occ. eigenvalues --   -0.61562  -0.55748  -0.53576  -0.53251  -0.44418
 Alpha  occ. eigenvalues --   -0.42547  -0.41708  -0.41401  -0.39681  -0.37769
 Alpha  occ. eigenvalues --   -0.33667  -0.29160  -0.26237
 Alpha virt. eigenvalues --   -0.21870  -0.17841  -0.17488  -0.13766  -0.13416
 Alpha virt. eigenvalues --   -0.12063  -0.11147  -0.10380  -0.09881  -0.09440
 Alpha virt. eigenvalues --   -0.07964  -0.07221  -0.06559  -0.06113  -0.05815

 Mulliken atomic charges:
              1
     1  O   -0.072752
     2  O   -0.618374
     3  O   -0.608174
     4  O   -0.856200
     5  P   -0.709333
     6  Ca   1.173556
     7  Ca   1.209012
     8  Ca   1.482265
 Sum of Mulliken charges=   1.00000

 Dipole moment (field-independent basis, Debye):
    X=    -7.1738    Y=    -1.8111    Z=     3.3391  Tot=     8.1175
 Quadrupole moment (field-independent basis, Debye-Ang):
   XX=   -37.9042   YY=   -41.4124   ZZ=   -84.9444
   XY=    14.0264   XZ=   -13.0886   YZ=     6.8946

 Normal termination of Gaussian 03 at Fri Jun 12 17:36:11 2015.
