 Gaussian 03, Revision E.01,
 Gaussian 03:  EM64T-G03RevE.01 11-Sep-2007

 ----------------------------------------------------
 # b3lyp/6-31+G(d,p) int=ultrafine pop=(ReadRadii,MK)
 ----------------------------------------------------

 -------------------------------------
 Ca3PO4_118.mol2c_plusQ.z51119.zip.xyz
 -------------------------------------
 Symbolic Z-matrix:
 Charge =  1 Multiplicity = 1

                         Standard orientation:
 ---------------------------------------------------------------------
 Center     Atomic     Atomic              Coordinates (Angstroms)
 Number     Number      Type              X           Y           Z
 ---------------------------------------------------------------------
    1          8             0       -1.959590   -0.875717   -0.015100
    2          8             0        0.384512    1.113821    0.001130
    3          8             0        2.500050   -1.089171    0.783580
    4          8             0        2.504120   -1.084141   -0.783150
    5         15             0       -3.546520   -0.703385    0.014970
    6         20             0       -1.726878    1.564513   -0.007010
    7         20             0        0.389289   -1.269139   -0.005990
    8         20             0        2.625842    1.006249    0.007190
 ---------------------------------------------------------------------

 SCF Done:  E(RB+HF-LYP) =  -2674.85225073     A.U. after   11 cycles

 The electronic state is 1-A.
 Alpha  occ. eigenvalues -- -145.52138-145.48156-145.46209 -77.25931 -19.30411
 Alpha  occ. eigenvalues --  -19.20645 -19.20632 -19.17006 -15.59071 -15.55018
 Alpha  occ. eigenvalues --  -15.53064 -12.72331 -12.72269 -12.72106 -12.68229
 Alpha  occ. eigenvalues --  -12.68198 -12.68128 -12.66303 -12.66261 -12.66151
 Alpha  occ. eigenvalues --   -6.72245  -4.88958  -4.88453  -4.87574  -1.96316
 Alpha  occ. eigenvalues --   -1.92305  -1.90396  -1.24217  -1.24143  -1.23047
 Alpha  occ. eigenvalues --   -1.20740  -1.19915  -1.19488  -1.18197  -1.18094
 Alpha  occ. eigenvalues --   -1.17824  -1.11709  -1.03249  -0.91765  -0.84383
 Alpha  occ. eigenvalues --   -0.68417  -0.51820  -0.50946  -0.50683  -0.44104
 Alpha  occ. eigenvalues --   -0.42477  -0.41619  -0.37626  -0.36625  -0.35823
 Alpha  occ. eigenvalues --   -0.31133  -0.30769  -0.29448
 Alpha virt. eigenvalues --   -0.25116  -0.20587  -0.17871  -0.14976  -0.13432
 Alpha virt. eigenvalues --   -0.11177  -0.11047  -0.11003  -0.09549  -0.09040
 Alpha virt. eigenvalues --   -0.08155  -0.07024  -0.06600  -0.05868  -0.05796

 Mulliken atomic charges:
              1
     1  O   -0.575751
     2  O   -1.321535
     3  O   -0.653314
     4  O   -0.652746
     5  P    0.052446
     6  Ca   1.309427
     7  Ca   1.393150
     8  Ca   1.448323
 Sum of Mulliken charges=   1.00000

 Dipole moment (field-independent basis, Debye):
    X=    -3.2465    Y=    10.0615    Z=    -0.0229  Tot=    10.5723
 Quadrupole moment (field-independent basis, Debye-Ang):
   XX=   -51.9894   YY=   -51.6739   ZZ=   -72.6974
   XY=    13.5142   XZ=     0.2242   YZ=    -0.0238

 Normal termination of Gaussian 03 at Fri Jun 12 17:36:20 2015.
