 Gaussian 03, Revision E.01,
 Gaussian 03:  EM64T-G03RevE.01 11-Sep-2007

 ----------------------------------------------------
 # b3lyp/6-31+G(d,p) int=ultrafine pop=(ReadRadii,MK)
 ----------------------------------------------------

 ------------------------------------
 Ca3PO4_48.mol2c_plusQ.z51461.zip.xyz
 ------------------------------------
 Symbolic Z-matrix:
 Charge =  1 Multiplicity = 1

                         Standard orientation:
 ---------------------------------------------------------------------
 Center     Atomic     Atomic              Coordinates (Angstroms)
 Number     Number      Type              X           Y           Z
 ---------------------------------------------------------------------
    1          8             0       -0.986292    1.106423    0.920272
    2          8             0       -0.465831   -1.405544    0.922472
    3          8             0        0.003062   -0.001306   -1.711698
    4          8             0        1.447881    0.301644    0.923922
    5         15             0       -0.003082    0.001335    1.717732
    6         20             0       -1.905008   -0.395164   -0.572358
    7         20             0        1.295864   -1.453031   -0.567468
    8         20             0        0.611928    1.846707   -0.570458
 ---------------------------------------------------------------------

 SCF Done:  E(RB+HF-LYP) =  -2675.07105127     A.U. after    8 cycles

 The electronic state is 1-A.
 Alpha  occ. eigenvalues -- -145.49652-145.49630-145.49618 -77.25049 -19.21261
 Alpha  occ. eigenvalues --  -19.21236 -19.21163 -19.15932 -15.56486 -15.56465
 Alpha  occ. eigenvalues --  -15.56453 -12.69685 -12.69663 -12.69662 -12.69652
 Alpha  occ. eigenvalues --  -12.69640 -12.69629 -12.69615 -12.69593 -12.69582
 Alpha  occ. eigenvalues --   -6.70080  -4.86428  -4.86428  -4.85892  -1.93822
 Alpha  occ. eigenvalues --   -1.93742  -1.93727  -1.22375  -1.21696  -1.21688
 Alpha  occ. eigenvalues --   -1.21303  -1.21136  -1.21066  -1.21056  -1.20646
 Alpha  occ. eigenvalues --   -1.20631  -1.06763  -1.00375  -1.00338  -0.90930
 Alpha  occ. eigenvalues --   -0.62639  -0.50535  -0.50524  -0.47962  -0.43359
 Alpha  occ. eigenvalues --   -0.43357  -0.38355  -0.38330  -0.38177  -0.36129
 Alpha  occ. eigenvalues --   -0.36125  -0.34582  -0.30851
 Alpha virt. eigenvalues --   -0.19948  -0.18030  -0.18021  -0.12555  -0.12551
 Alpha virt. eigenvalues --   -0.10893  -0.09480  -0.09474  -0.08338  -0.07770
 Alpha virt. eigenvalues --   -0.06545  -0.06114  -0.06113  -0.04764  -0.04715

 Mulliken atomic charges:
              1
     1  O   -1.032427
     2  O   -1.032309
     3  O   -1.250921
     4  O   -1.031805
     5  P    1.097950
     6  Ca   1.416725
     7  Ca   1.416574
     8  Ca   1.416214
 Sum of Mulliken charges=   1.00000

 Dipole moment (field-independent basis, Debye):
    X=     0.0141    Y=    -0.0085    Z=    -8.2280  Tot=     8.2281
 Quadrupole moment (field-independent basis, Debye-Ang):
   XX=   -39.9993   YY=   -40.0616   ZZ=   -90.0213
   XY=    -0.0019   XZ=     0.0779   YZ=    -0.0309

 Normal termination of Gaussian 03 at Fri Jun 12 17:43:55 2015.
