 Gaussian 03, Revision E.01,
 Gaussian 03:  EM64T-G03RevE.01 11-Sep-2007

 ----------------------------------------------------
 # b3lyp/6-31+G(d,p) int=ultrafine pop=(ReadRadii,MK)
 ----------------------------------------------------

 -----------------------------------
 Ca3PO4_56.mol2_plusQ.z51470.zip.xyz
 -----------------------------------
 Symbolic Z-matrix:
 Charge =  1 Multiplicity = 1

                         Standard orientation:
 ---------------------------------------------------------------------
 Center     Atomic     Atomic              Coordinates (Angstroms)
 Number     Number      Type              X           Y           Z
 ---------------------------------------------------------------------
    1          8             0        0.160295   -1.472852    0.920372
    2          8             0       -1.354223    0.597190    0.923362
    3          8             0        1.195702    0.873400    0.921952
    4          8             0       -0.001518    0.001154   -1.712738
    5         15             0        0.001207   -0.001362    1.717952
    6         20             0       -0.210046    1.934523   -0.568768
    7         20             0       -1.571541   -1.148080   -0.569658
    8         20             0        1.780579   -0.784979   -0.571218
 ---------------------------------------------------------------------

 SCF Done:  E(RB+HF-LYP) =  -2675.07103421     A.U. after    8 cycles

 The electronic state is 1-A.
 Alpha  occ. eigenvalues -- -145.49643-145.49632-145.49629 -77.25064 -19.21251
 Alpha  occ. eigenvalues --  -19.21226 -19.21202 -19.15934 -15.56477 -15.56467
 Alpha  occ. eigenvalues --  -15.56464 -12.69675 -12.69665 -12.69664 -12.69652
 Alpha  occ. eigenvalues --  -12.69642 -12.69640 -12.69605 -12.69595 -12.69594
 Alpha  occ. eigenvalues --   -6.70093  -4.86442  -4.86442  -4.85905  -1.93821
 Alpha  occ. eigenvalues --   -1.93739  -1.93733  -1.22376  -1.21695  -1.21692
 Alpha  occ. eigenvalues --   -1.21303  -1.21137  -1.21064  -1.21060  -1.20642
 Alpha  occ. eigenvalues --   -1.20636  -1.06759  -1.00366  -1.00347  -0.90926
 Alpha  occ. eigenvalues --   -0.62650  -0.50535  -0.50528  -0.47963  -0.43362
 Alpha  occ. eigenvalues --   -0.43359  -0.38352  -0.38339  -0.38185  -0.36124
 Alpha  occ. eigenvalues --   -0.36119  -0.34581  -0.30866
 Alpha virt. eigenvalues --   -0.19947  -0.18025  -0.18021  -0.12553  -0.12548
 Alpha virt. eigenvalues --   -0.10891  -0.09479  -0.09476  -0.08337  -0.07769
 Alpha virt. eigenvalues --   -0.06545  -0.06113  -0.06112  -0.04766  -0.04717

 Mulliken atomic charges:
              1
     1  O   -1.032115
     2  O   -1.032384
     3  O   -1.032614
     4  O   -1.250999
     5  P    1.097820
     6  Ca   1.416533
     7  Ca   1.416832
     8  Ca   1.416926
 Sum of Mulliken charges=   1.00000

 Dipole moment (field-independent basis, Debye):
    X=    -0.0019    Y=     0.0046    Z=    -8.2152  Tot=     8.2152
 Quadrupole moment (field-independent basis, Debye-Ang):
   XX=   -39.9944   YY=   -40.0494   ZZ=   -90.0314
   XY=     0.0029   XZ=    -0.0313   YZ=     0.0238

 Normal termination of Gaussian 03 at Fri Jun 12 17:44:19 2015.
