 Gaussian 03, Revision E.01,
 Gaussian 03:  EM64T-G03RevE.01 11-Sep-2007

 ----------------------------------------------------
 # b3lyp/6-31+G(d,p) int=ultrafine pop=(ReadRadii,MK)
 ----------------------------------------------------

 -------------------------------------
 Ca3PO4_130.mol2c_plusQ.z51133.zip.xyz
 -------------------------------------
 Symbolic Z-matrix:
 Charge =  1 Multiplicity = 1

                         Standard orientation:
 ---------------------------------------------------------------------
 Center     Atomic     Atomic              Coordinates (Angstroms)
 Number     Number      Type              X           Y           Z
 ---------------------------------------------------------------------
    1          8             0        0.967600    1.121240    0.922080
    2          8             0       -1.454786    0.278335    0.921580
    3          8             0        0.486699   -1.397727    0.922280
    4          8             0        0.000141   -0.000391   -1.711780
    5         15             0       -0.000139    0.000559    1.717700
    6         20             0       -0.639979    1.836896   -0.570680
    7         20             0       -1.271605   -1.473073   -0.569500
    8         20             0        1.911827   -0.364825   -0.569760
 ---------------------------------------------------------------------

 SCF Done:  E(RB+HF-LYP) =  -2675.07104582     A.U. after    8 cycles

 The electronic state is 1-A.
 Alpha  occ. eigenvalues -- -145.49643-145.49634-145.49616 -77.25059 -19.21245
 Alpha  occ. eigenvalues --  -19.21228 -19.21205 -19.15937 -15.56477 -15.56469
 Alpha  occ. eigenvalues --  -15.56452 -12.69675 -12.69668 -12.69653 -12.69651
 Alpha  occ. eigenvalues --  -12.69645 -12.69628 -12.69606 -12.69598 -12.69581
 Alpha  occ. eigenvalues --   -6.70089  -4.86438  -4.86438  -4.85901  -1.93820
 Alpha  occ. eigenvalues --   -1.93740  -1.93727  -1.22375  -1.21695  -1.21688
 Alpha  occ. eigenvalues --   -1.21302  -1.21135  -1.21064  -1.21057  -1.20643
 Alpha  occ. eigenvalues --   -1.20631  -1.06763  -1.00369  -1.00351  -0.90935
 Alpha  occ. eigenvalues --   -0.62648  -0.50536  -0.50530  -0.47966  -0.43364
 Alpha  occ. eigenvalues --   -0.43360  -0.38353  -0.38344  -0.38185  -0.36131
 Alpha  occ. eigenvalues --   -0.36131  -0.34588  -0.30861
 Alpha virt. eigenvalues --   -0.19947  -0.18028  -0.18020  -0.12554  -0.12550
 Alpha virt. eigenvalues --   -0.10892  -0.09480  -0.09475  -0.08337  -0.07769
 Alpha virt. eigenvalues --   -0.06545  -0.06114  -0.06113  -0.04765  -0.04716

 Mulliken atomic charges:
              1
     1  O   -1.032175
     2  O   -1.032043
     3  O   -1.032371
     4  O   -1.251074
     5  P    1.097802
     6  Ca   1.416404
     7  Ca   1.416612
     8  Ca   1.416845
 Sum of Mulliken charges=   1.00000

 Dipole moment (field-independent basis, Debye):
    X=     0.0037    Y=    -0.0103    Z=    -8.2237  Tot=     8.2238
 Quadrupole moment (field-independent basis, Debye-Ang):
   XX=   -40.0155   YY=   -40.0454   ZZ=   -90.0151
   XY=     0.0025   XZ=     0.0018   YZ=    -0.0176

 Normal termination of Gaussian 03 at Fri Jun 12 17:37:27 2015.
