 Gaussian 03, Revision E.01,
 Gaussian 03:  EM64T-G03RevE.01 11-Sep-2007

 ----------------------------------------------------
 # b3lyp/6-31+G(d,p) int=ultrafine pop=(ReadRadii,MK)
 ----------------------------------------------------

 ------------------------------------
 Ca3PO4_53.mol2c_plusQ.z51467.zip.xyz
 ------------------------------------
 Symbolic Z-matrix:
 Charge =  1 Multiplicity = 1

                         Standard orientation:
 ---------------------------------------------------------------------
 Center     Atomic     Atomic              Coordinates (Angstroms)
 Number     Number      Type              X           Y           Z
 ---------------------------------------------------------------------
    1          8             0       -0.185922   -1.468017    0.923670
    2          8             0        1.366429    0.573433    0.920930
    3          8             0       -1.178247    0.896945    0.922290
    4          8             0       -0.001284   -0.001614   -1.712380
    5         15             0        0.001275    0.001246    1.718250
    6         20             0       -1.794890   -0.753234   -0.568710
    7         20             0        1.548712   -1.177988   -0.570400
    8         20             0        0.244831    1.929989   -0.571380
 ---------------------------------------------------------------------

 SCF Done:  E(RB+HF-LYP) =  -2675.07103699     A.U. after    8 cycles

 The electronic state is 1-A.
 Alpha  occ. eigenvalues -- -145.49641-145.49636-145.49633 -77.25061 -19.21236
 Alpha  occ. eigenvalues --  -19.21221 -19.21214 -19.15940 -15.56475 -15.56471
 Alpha  occ. eigenvalues --  -15.56469 -12.69672 -12.69670 -12.69668 -12.69650
 Alpha  occ. eigenvalues --  -12.69648 -12.69645 -12.69602 -12.69601 -12.69598
 Alpha  occ. eigenvalues --   -6.70090  -4.86439  -4.86439  -4.85902  -1.93823
 Alpha  occ. eigenvalues --   -1.93739  -1.93737  -1.22376  -1.21695  -1.21694
 Alpha  occ. eigenvalues --   -1.21305  -1.21139  -1.21064  -1.21064  -1.20643
 Alpha  occ. eigenvalues --   -1.20641  -1.06756  -1.00359  -1.00347  -0.90935
 Alpha  occ. eigenvalues --   -0.62645  -0.50528  -0.50525  -0.47959  -0.43357
 Alpha  occ. eigenvalues --   -0.43355  -0.38344  -0.38339  -0.38178  -0.36131
 Alpha  occ. eigenvalues --   -0.36130  -0.34588  -0.30864
 Alpha virt. eigenvalues --   -0.19949  -0.18026  -0.18025  -0.12554  -0.12553
 Alpha virt. eigenvalues --   -0.10893  -0.09478  -0.09477  -0.08338  -0.07771
 Alpha virt. eigenvalues --   -0.06545  -0.06114  -0.06113  -0.04765  -0.04717

 Mulliken atomic charges:
              1
     1  O   -1.032385
     2  O   -1.032298
     3  O   -1.032314
     4  O   -1.251051
     5  P    1.097972
     6  Ca   1.416767
     7  Ca   1.416630
     8  Ca   1.416679
 Sum of Mulliken charges=   1.00000

 Dipole moment (field-independent basis, Debye):
    X=    -0.0077    Y=    -0.0065    Z=    -8.2259  Tot=     8.2260
 Quadrupole moment (field-independent basis, Debye-Ang):
   XX=   -40.0325   YY=   -40.0261   ZZ=   -90.0213
   XY=     0.0030   XZ=    -0.0312   YZ=    -0.0346

 Normal termination of Gaussian 03 at Fri Jun 12 17:44:20 2015.
