 Gaussian 03, Revision E.01,
 Gaussian 03:  EM64T-G03RevE.01 11-Sep-2007

 ----------------------------------------------------
 # b3lyp/6-31+G(d,p) int=ultrafine pop=(ReadRadii,MK)
 ----------------------------------------------------

 ------------------------------------
 Ca3PO4_24.mol2c_plusQ.z51435.zip.xyz
 ------------------------------------
 Symbolic Z-matrix:
 Charge =  1 Multiplicity = 1

                         Standard orientation:
 ---------------------------------------------------------------------
 Center     Atomic     Atomic              Coordinates (Angstroms)
 Number     Number      Type              X           Y           Z
 ---------------------------------------------------------------------
    1          8             0       -1.208992    1.303495   -0.455832
    2          8             0        0.749543    0.001087    1.322118
    3          8             0        2.167623    0.001302    0.760518
    4          8             0       -1.204992   -1.305925   -0.456172
    5         15             0       -1.091697   -0.000576   -1.561852
    6         20             0        1.057730    1.692946   -0.335812
    7         20             0       -1.500857   -0.001334    1.374848
    8         20             0        1.060627   -1.691164   -0.335902
 ---------------------------------------------------------------------

 SCF Done:  E(RB+HF-LYP) =  -2674.89010651     A.U. after    7 cycles

 The electronic state is 1-A.
 Alpha  occ. eigenvalues -- -145.52828-145.50760-145.50750 -77.21492 -19.26308
 Alpha  occ. eigenvalues --  -19.25933 -19.22262 -19.22259 -15.59600 -15.57610
 Alpha  occ. eigenvalues --  -15.57602 -12.72784 -12.72783 -12.72760 -12.70845
 Alpha  occ. eigenvalues --  -12.70837 -12.70794 -12.70785 -12.70713 -12.70704
 Alpha  occ. eigenvalues --   -6.67299  -4.83735  -4.83464  -4.83039  -1.96775
 Alpha  occ. eigenvalues --   -1.94803  -1.94748  -1.24747  -1.24318  -1.24231
 Alpha  occ. eigenvalues --   -1.23214  -1.22460  -1.22307  -1.22180  -1.22115
 Alpha  occ. eigenvalues --   -1.21772  -1.10202  -1.04695  -1.00694  -0.89624
 Alpha  occ. eigenvalues --   -0.63133  -0.51629  -0.49761  -0.48636  -0.48458
 Alpha  occ. eigenvalues --   -0.47607  -0.44968  -0.41615  -0.39258  -0.37723
 Alpha  occ. eigenvalues --   -0.35803  -0.34546  -0.25345
 Alpha virt. eigenvalues --   -0.20593  -0.19186  -0.18821  -0.13463  -0.13075
 Alpha virt. eigenvalues --   -0.11286  -0.11011  -0.10667  -0.09121  -0.08672
 Alpha virt. eigenvalues --   -0.08254  -0.07168  -0.06825  -0.06452  -0.05778

 Mulliken atomic charges:
              1
     1  O   -0.776151
     2  O   -0.673810
     3  O   -0.608047
     4  O   -0.776590
     5  P   -0.226805
     6  Ca   1.260453
     7  Ca   1.540076
     8  Ca   1.260874
 Sum of Mulliken charges=   1.00000

 Dipole moment (field-independent basis, Debye):
    X=     0.9883    Y=    -0.0009    Z=     5.3990  Tot=     5.4887
 Quadrupole moment (field-independent basis, Debye-Ang):
   XX=   -67.1470   YY=   -43.8509   ZZ=   -71.2097
   XY=    -0.0214   XZ=   -29.6600   YZ=    -0.0229

 Normal termination of Gaussian 03 at Fri Jun 12 17:42:31 2015.
