 Gaussian 03, Revision E.01,
 Gaussian 03:  EM64T-G03RevE.01 11-Sep-2007

 ----------------------------------------------------
 # b3lyp/6-31+G(d,p) int=ultrafine pop=(ReadRadii,MK)
 ----------------------------------------------------

 -------------------------------------
 Ca3PO4_31.mol2c_plusQc.z51697.zip.xyz
 -------------------------------------
 Symbolic Z-matrix:
 Charge =  1 Multiplicity = 1

                         Standard orientation:
 ---------------------------------------------------------------------
 Center     Atomic     Atomic              Coordinates (Angstroms)
 Number     Number      Type              X           Y           Z
 ---------------------------------------------------------------------
    1          8             0        0.613881   -1.346967    0.922422
    2          8             0        0.001759    0.000450   -1.711428
    3          8             0       -1.475590    0.140260    0.920792
    4          8             0        0.858156    1.205466    0.923642
    5         15             0       -0.001411   -0.001310    1.717832
    6         20             0       -0.808871    1.769810   -0.569908
    7         20             0       -1.128237   -1.584623   -0.571718
    8         20             0        1.938884   -0.183888   -0.568918
 ---------------------------------------------------------------------

 SCF Done:  E(RB+HF-LYP) =  -2675.07103770     A.U. after    8 cycles

 The electronic state is 1-A.
 Alpha  occ. eigenvalues -- -145.49656-145.49627-145.49621 -77.25049 -19.21267
 Alpha  occ. eigenvalues --  -19.21211 -19.21175 -19.15931 -15.56490 -15.56462
 Alpha  occ. eigenvalues --  -15.56456 -12.69689 -12.69666 -12.69660 -12.69655
 Alpha  occ. eigenvalues --  -12.69637 -12.69632 -12.69619 -12.69590 -12.69585
 Alpha  occ. eigenvalues --   -6.70078  -4.86427  -4.86427  -4.85891  -1.93822
 Alpha  occ. eigenvalues --   -1.93743  -1.93726  -1.22372  -1.21696  -1.21687
 Alpha  occ. eigenvalues --   -1.21303  -1.21136  -1.21066  -1.21055  -1.20647
 Alpha  occ. eigenvalues --   -1.20630  -1.06756  -1.00374  -1.00327  -0.90928
 Alpha  occ. eigenvalues --   -0.62635  -0.50528  -0.50517  -0.47956  -0.43356
 Alpha  occ. eigenvalues --   -0.43349  -0.38348  -0.38327  -0.38172  -0.36126
 Alpha  occ. eigenvalues --   -0.36124  -0.34579  -0.30849
 Alpha virt. eigenvalues --   -0.19948  -0.18032  -0.18020  -0.12555  -0.12551
 Alpha virt. eigenvalues --   -0.10893  -0.09481  -0.09473  -0.08339  -0.07771
 Alpha virt. eigenvalues --   -0.06545  -0.06115  -0.06112  -0.04763  -0.04714

 Mulliken atomic charges:
              1
     1  O   -1.032344
     2  O   -1.251005
     3  O   -1.031920
     4  O   -1.032197
     5  P    1.097797
     6  Ca   1.416384
     7  Ca   1.416226
     8  Ca   1.417059
 Sum of Mulliken charges=   1.00000

 Dipole moment (field-independent basis, Debye):
    X=     0.0165    Y=     0.0059    Z=    -8.2315  Tot=     8.2315
 Quadrupole moment (field-independent basis, Debye-Ang):
   XX=   -39.9959   YY=   -40.0516   ZZ=   -90.0169
   XY=    -0.0070   XZ=     0.0407   YZ=     0.0158

 Normal termination of Gaussian 03 at Fri Jun 12 17:42:58 2015.
