 Gaussian 03, Revision E.01,
 Gaussian 03:  EM64T-G03RevE.01 11-Sep-2007

 ----------------------------------------------------
 # b3lyp/6-31+G(d,p) int=ultrafine pop=(ReadRadii,MK)
 ----------------------------------------------------

 -------------------------------------
 Ca3PO4_123.mol2c_plusQ.z51125.zip.xyz
 -------------------------------------
 Symbolic Z-matrix:
 Charge =  1 Multiplicity = 1

                         Standard orientation:
 ---------------------------------------------------------------------
 Center     Atomic     Atomic              Coordinates (Angstroms)
 Number     Number      Type              X           Y           Z
 ---------------------------------------------------------------------
    1          8             0        0.001451    0.000140   -1.712291
    2          8             0       -0.647722   -1.332055    0.921649
    3          8             0        1.476062    0.105690    0.923869
    4          8             0       -0.830688    1.226649    0.921849
    5         15             0       -0.001779    0.000177    1.718189
    6         20             0        0.851131    1.749593   -0.569831
    7         20             0       -1.941053   -0.138869   -0.571531
    8         20             0        1.091615   -1.611027   -0.569311
 ---------------------------------------------------------------------

 SCF Done:  E(RB+HF-LYP) =  -2675.07103517     A.U. after    8 cycles

 The electronic state is 1-A.
 Alpha  occ. eigenvalues -- -145.49651-145.49636-145.49630 -77.25057 -19.21242
 Alpha  occ. eigenvalues --  -19.21217 -19.21216 -19.15945 -15.56485 -15.56471
 Alpha  occ. eigenvalues --  -15.56465 -12.69683 -12.69669 -12.69664 -12.69661
 Alpha  occ. eigenvalues --  -12.69647 -12.69641 -12.69614 -12.69599 -12.69594
 Alpha  occ. eigenvalues --   -6.70087  -4.86436  -4.86436  -4.85899  -1.93826
 Alpha  occ. eigenvalues --   -1.93745  -1.93735  -1.22378  -1.21698  -1.21695
 Alpha  occ. eigenvalues --   -1.21308  -1.21141  -1.21069  -1.21063  -1.20648
 Alpha  occ. eigenvalues --   -1.20639  -1.06759  -1.00361  -1.00349  -0.90940
 Alpha  occ. eigenvalues --   -0.62644  -0.50529  -0.50526  -0.47961  -0.43358
 Alpha  occ. eigenvalues --   -0.43357  -0.38347  -0.38340  -0.38178  -0.36137
 Alpha  occ. eigenvalues --   -0.36134  -0.34592  -0.30861
 Alpha virt. eigenvalues --   -0.19950  -0.18030  -0.18024  -0.12555  -0.12553
 Alpha virt. eigenvalues --   -0.10894  -0.09480  -0.09475  -0.08339  -0.07772
 Alpha virt. eigenvalues --   -0.06545  -0.06115  -0.06113  -0.04765  -0.04716

 Mulliken atomic charges:
              1
     1  O   -1.251098
     2  O   -1.032161
     3  O   -1.032261
     4  O   -1.032287
     5  P    1.097946
     6  Ca   1.416405
     7  Ca   1.416946
     8  Ca   1.416509
 Sum of Mulliken charges=   1.00000

 Dipole moment (field-independent basis, Debye):
    X=     0.0064    Y=    -0.0040    Z=    -8.2288  Tot=     8.2288
 Quadrupole moment (field-independent basis, Debye-Ang):
   XX=   -39.9967   YY=   -40.0663   ZZ=   -90.0217
   XY=     0.0006   XZ=     0.0355   YZ=    -0.0031

 Normal termination of Gaussian 03 at Fri Jun 12 17:36:30 2015.
