 Gaussian 03, Revision E.01,
 Gaussian 03:  EM64T-G03RevE.01 11-Sep-2007

 ----------------------------------------------------
 # b3lyp/6-31+G(d,p) int=ultrafine pop=(ReadRadii,MK)
 ----------------------------------------------------

 -------------------------------------
 Ca3PO4_177.mol2c_plusQ.z51184.zip.xyz
 -------------------------------------
 Symbolic Z-matrix:
 Charge =  1 Multiplicity = 1

                         Standard orientation:
 ---------------------------------------------------------------------
 Center     Atomic     Atomic              Coordinates (Angstroms)
 Number     Number      Type              X           Y           Z
 ---------------------------------------------------------------------
    1          8             0        0.587068    1.253670   -0.108589
    2          8             0       -2.692330   -0.000087   -0.333229
    3          8             0        2.238500   -0.000727    1.331601
    4          8             0        0.587253   -1.253540   -0.109909
    5         15             0        0.691310   -0.000600    1.034181
    6         20             0       -1.623894    1.818185   -0.075839
    7         20             0        2.440670    0.000714   -0.935439
    8         20             0       -1.623456   -1.818175   -0.076309
 ---------------------------------------------------------------------

 SCF Done:  E(RB+HF-LYP) =  -2674.99967888     A.U. after    8 cycles

 The electronic state is 1-A.
 Alpha  occ. eigenvalues -- -145.52899-145.48522-145.48519 -77.24507 -19.21559
 Alpha  occ. eigenvalues --  -19.21556 -19.18910 -19.12189 -15.59696 -15.55425
 Alpha  occ. eigenvalues --  -15.55422 -12.72878 -12.72874 -12.72862 -12.68677
 Alpha  occ. eigenvalues --  -12.68674 -12.68609 -12.68605 -12.68484 -12.68480
 Alpha  occ. eigenvalues --   -6.69823  -4.86203  -4.86126  -4.85705  -1.96739
 Alpha  occ. eigenvalues --   -1.92690  -1.92664  -1.24715  -1.24001  -1.23964
 Alpha  occ. eigenvalues --   -1.20598  -1.20528  -1.20413  -1.20156  -1.19798
 Alpha  occ. eigenvalues --   -1.19306  -1.06955  -0.99976  -0.99930  -0.86573
 Alpha  occ. eigenvalues --   -0.61878  -0.49711  -0.49548  -0.48421  -0.42892
 Alpha  occ. eigenvalues --   -0.42357  -0.38148  -0.37916  -0.34574  -0.32843
 Alpha  occ. eigenvalues --   -0.32543  -0.30665  -0.30262
 Alpha virt. eigenvalues --   -0.20426  -0.18308  -0.17399  -0.12506  -0.11991
 Alpha virt. eigenvalues --   -0.10385  -0.10050  -0.08961  -0.08368  -0.08012
 Alpha virt. eigenvalues --   -0.07399  -0.06924  -0.06468  -0.05553  -0.05312

 Mulliken atomic charges:
              1
     1  O   -0.957495
     2  O   -1.183541
     3  O   -0.880262
     4  O   -0.957296
     5  P    0.749699
     6  Ca   1.424323
     7  Ca   1.380360
     8  Ca   1.424213
 Sum of Mulliken charges=   1.00000

 Dipole moment (field-independent basis, Debye):
    X=     1.5092    Y=     0.0065    Z=    -7.4980  Tot=     7.6484
 Quadrupole moment (field-independent basis, Debye-Ang):
   XX=   -53.1101   YY=   -32.2943   ZZ=   -70.0858
   XY=     0.0097   XZ=   -28.1180   YZ=    -0.0020

 Normal termination of Gaussian 03 at Fri Jun 12 17:39:57 2015.
