 Gaussian 03, Revision E.01,
 Gaussian 03:  EM64T-G03RevE.01 11-Sep-2007

 ----------------------------------------------------
 # b3lyp/6-31+G(d,p) int=ultrafine pop=(ReadRadii,MK)
 ----------------------------------------------------

 -------------------------------------
 Ca3PO4_198.mol2c_plusQ.z51207.zip.xyz
 -------------------------------------
 Symbolic Z-matrix:
 Charge =  1 Multiplicity = 1

                         Standard orientation:
 ---------------------------------------------------------------------
 Center     Atomic     Atomic              Coordinates (Angstroms)
 Number     Number      Type              X           Y           Z
 ---------------------------------------------------------------------
    1          8             0       -0.123645   -1.475862    0.921711
    2          8             0       -1.216528    0.844265    0.922261
    3          8             0        0.000580    0.000292   -1.711999
    4          8             0        1.339343    0.630740    0.923281
    5         15             0       -0.000759   -0.000759    1.718191
    6         20             0        0.162367    1.939067   -0.569739
    7         20             0        1.598653   -1.109542   -0.570099
    8         20             0       -1.760351   -0.828730   -0.570909
 ---------------------------------------------------------------------

 SCF Done:  E(RB+HF-LYP) =  -2675.07103704     A.U. after    8 cycles

 The electronic state is 1-A.
 Alpha  occ. eigenvalues -- -145.49641-145.49635-145.49634 -77.25056 -19.21229
 Alpha  occ. eigenvalues --  -19.21224 -19.21217 -19.15943 -15.56474 -15.56470
 Alpha  occ. eigenvalues --  -15.56470 -12.69671 -12.69670 -12.69669 -12.69649
 Alpha  occ. eigenvalues --  -12.69648 -12.69645 -12.69601 -12.69600 -12.69599
 Alpha  occ. eigenvalues --   -6.70086  -4.86435  -4.86435  -4.85898  -1.93823
 Alpha  occ. eigenvalues --   -1.93739  -1.93738  -1.22377  -1.21695  -1.21694
 Alpha  occ. eigenvalues --   -1.21306  -1.21139  -1.21064  -1.21064  -1.20642
 Alpha  occ. eigenvalues --   -1.20642  -1.06759  -1.00359  -1.00350  -0.90941
 Alpha  occ. eigenvalues --   -0.62642  -0.50528  -0.50526  -0.47961  -0.43358
 Alpha  occ. eigenvalues --   -0.43357  -0.38345  -0.38340  -0.38177  -0.36137
 Alpha  occ. eigenvalues --   -0.36136  -0.34593  -0.30860
 Alpha virt. eigenvalues --   -0.19950  -0.18026  -0.18026  -0.12555  -0.12553
 Alpha virt. eigenvalues --   -0.10894  -0.09478  -0.09477  -0.08338  -0.07772
 Alpha virt. eigenvalues --   -0.06545  -0.06114  -0.06113  -0.04765  -0.04716

 Mulliken atomic charges:
              1
     1  O   -1.032192
     2  O   -1.032335
     3  O   -1.251085
     4  O   -1.032255
     5  P    1.098066
     6  Ca   1.416561
     7  Ca   1.416639
     8  Ca   1.416602
 Sum of Mulliken charges=   1.00000

 Dipole moment (field-independent basis, Debye):
    X=     0.0023    Y=     0.0033    Z=    -8.2307  Tot=     8.2307
 Quadrupole moment (field-independent basis, Debye-Ang):
   XX=   -40.0240   YY=   -40.0434   ZZ=   -90.0153
   XY=    -0.0017   XZ=     0.0116   YZ=     0.0072

 Normal termination of Gaussian 03 at Fri Jun 12 17:41:05 2015.
