 Gaussian 03, Revision E.01,
 Gaussian 03:  EM64T-G03RevE.01 11-Sep-2007

 ----------------------------------------------------
 # b3lyp/6-31+G(d,p) int=ultrafine pop=(ReadRadii,MK)
 ----------------------------------------------------

 -------------------------------------
 Ca3PO4_58.mol2cc_plusQ.z51472.zip.xyz
 -------------------------------------
 Symbolic Z-matrix:
 Charge =  1 Multiplicity = 1

                         Standard orientation:
 ---------------------------------------------------------------------
 Center     Atomic     Atomic              Coordinates (Angstroms)
 Number     Number      Type              X           Y           Z
 ---------------------------------------------------------------------
    1          8             0       -1.537398    0.594870   -0.439511
    2          8             0        3.627583    0.289503   -0.510561
    3          8             0        0.142033   -0.630579    1.032929
    4          8             0        2.296192    0.930453   -0.295371
    5         15             0       -0.939097   -0.958749   -0.129351
    6         20             0        2.184864   -1.284187    0.025909
    7         20             0       -3.698417   -0.154861   -0.114981
    8         20             0        0.406512    1.684411    0.271089
 ---------------------------------------------------------------------

 SCF Done:  E(RB+HF-LYP) =  -2674.83341068     A.U. after   10 cycles

 The electronic state is 1-A.
 Alpha  occ. eigenvalues -- -145.54504-145.51420-145.49382 -77.25443 -19.25216
 Alpha  occ. eigenvalues --  -19.25039 -19.21034 -19.18730 -15.61442 -15.58183
 Alpha  occ. eigenvalues --  -15.56246 -12.74650 -12.74619 -12.74534 -12.71425
 Alpha  occ. eigenvalues --  -12.71394 -12.71275 -12.69504 -12.69427 -12.69326
 Alpha  occ. eigenvalues --   -6.71252  -4.87665  -4.87343  -4.87157  -1.98443
 Alpha  occ. eigenvalues --   -1.95309  -1.93434  -1.25992  -1.25717  -1.25679
 Alpha  occ. eigenvalues --   -1.23361  -1.22890  -1.22688  -1.21251  -1.21184
 Alpha  occ. eigenvalues --   -1.20666  -1.09018  -1.04635  -1.04166  -0.82421
 Alpha  occ. eigenvalues --   -0.65702  -0.52541  -0.51317  -0.50223  -0.45748
 Alpha  occ. eigenvalues --   -0.44129  -0.42211  -0.41588  -0.41241  -0.40256
 Alpha  occ. eigenvalues --   -0.28606  -0.27540  -0.26567
 Alpha virt. eigenvalues --   -0.22548  -0.18818  -0.17610  -0.14786  -0.13959
 Alpha virt. eigenvalues --   -0.12242  -0.10941  -0.10246  -0.10031  -0.09226
 Alpha virt. eigenvalues --   -0.07980  -0.07549  -0.06908  -0.05918  -0.05611

 Mulliken atomic charges:
              1
     1  O   -0.743360
     2  O   -0.600248
     3  O   -0.765157
     4  O   -0.615456
     5  P   -0.111626
     6  Ca   1.411908
     7  Ca   0.930682
     8  Ca   1.493258
 Sum of Mulliken charges=   1.00000

 Dipole moment (field-independent basis, Debye):
    X=    -9.9547    Y=    -0.0611    Z=     2.6137  Tot=    10.2923
 Quadrupole moment (field-independent basis, Debye-Ang):
   XX=   -50.4813   YY=   -46.9343   ZZ=   -79.3248
   XY=   -23.9987   XZ=     9.6590   YZ=     7.3571

 Normal termination of Gaussian 03 at Fri Jun 12 17:44:25 2015.
