 Gaussian 03, Revision E.01,
 Gaussian 03:  EM64T-G03RevE.01 11-Sep-2007

 ----------------------------------------------------
 # b3lyp/6-31+G(d,p) int=ultrafine pop=(ReadRadii,MK)
 ----------------------------------------------------

 ------------------------------------
 Ca3PO4_25.mol2c_plusQ.z51436.zip.xyz
 ------------------------------------
 Symbolic Z-matrix:
 Charge =  1 Multiplicity = 1

                         Standard orientation:
 ---------------------------------------------------------------------
 Center     Atomic     Atomic              Coordinates (Angstroms)
 Number     Number      Type              X           Y           Z
 ---------------------------------------------------------------------
    1          8             0        1.327078   -0.733056    1.360411
    2          8             0       -0.029411    1.510137    1.363711
    3          8             0       -1.294197   -0.786391    1.361231
    4          8             0        0.000050   -0.000450   -0.687789
    5         15             0        0.000910   -0.002820    1.065071
    6         20             0       -0.041682    2.379106   -0.716519
    7         20             0        2.083017   -1.151176   -0.721499
    8         20             0       -2.043426   -1.221911   -0.719809
 ---------------------------------------------------------------------

 SCF Done:  E(RB+HF-LYP) =  -2675.01212088     A.U. after    9 cycles

 The electronic state is 1-A.
 Alpha  occ. eigenvalues -- -145.53777-145.53710-145.53709 -77.32333 -19.26095
 Alpha  occ. eigenvalues --  -19.22425 -19.22400 -19.22387 -15.60669 -15.60605
 Alpha  occ. eigenvalues --  -15.60604 -12.73896 -12.73832 -12.73831 -12.73830
 Alpha  occ. eigenvalues --  -12.73776 -12.73766 -12.73765 -12.73711 -12.73710
 Alpha  occ. eigenvalues --   -6.76704  -4.93246  -4.92947  -4.92947  -1.97725
 Alpha  occ. eigenvalues --   -1.97670  -1.97664  -1.25658  -1.25337  -1.25290
 Alpha  occ. eigenvalues --   -1.25259  -1.25040  -1.25003  -1.24996  -1.24914
 Alpha  occ. eigenvalues --   -1.24884  -1.13313  -1.04700  -1.04683  -1.04466
 Alpha  occ. eigenvalues --   -0.63483  -0.55558  -0.53626  -0.53619  -0.47951
 Alpha  occ. eigenvalues --   -0.47941  -0.43452  -0.43445  -0.42236  -0.40383
 Alpha  occ. eigenvalues --   -0.40371  -0.37484  -0.26994
 Alpha virt. eigenvalues --   -0.22186  -0.22161  -0.15992  -0.15979  -0.14865
 Alpha virt. eigenvalues --   -0.12676  -0.11783  -0.11764  -0.11230  -0.08622
 Alpha virt. eigenvalues --   -0.08607  -0.07722  -0.05591  -0.05586  -0.05430

 Mulliken atomic charges:
              1
     1  O   -0.773200
     2  O   -0.773514
     3  O   -0.773307
     4  O   -1.112519
     5  P    1.352899
     6  Ca   1.026054
     7  Ca   1.030823
     8  Ca   1.022764
 Sum of Mulliken charges=   1.00000

 Dipole moment (field-independent basis, Debye):
    X=     0.0935    Y=     0.0289    Z=   -10.6851  Tot=    10.6856
 Quadrupole moment (field-independent basis, Debye-Ang):
   XX=   -46.4658   YY=   -46.5623   ZZ=   -93.5577
   XY=    -0.0802   XZ=    -0.1529   YZ=     0.0643

 Normal termination of Gaussian 03 at Fri Jun 12 17:42:50 2015.
