 Gaussian 03, Revision E.01,
 Gaussian 03:  EM64T-G03RevE.01 11-Sep-2007

 ----------------------------------------------------
 # b3lyp/6-31+G(d,p) int=ultrafine pop=(ReadRadii,MK)
 ----------------------------------------------------

 -------------------------------------
 Ca3PO4_179.mol2c_plusQ.z51186.zip.xyz
 -------------------------------------
 Symbolic Z-matrix:
 Charge =  1 Multiplicity = 1

                         Standard orientation:
 ---------------------------------------------------------------------
 Center     Atomic     Atomic              Coordinates (Angstroms)
 Number     Number      Type              X           Y           Z
 ---------------------------------------------------------------------
    1          8             0       -1.855292   -0.434608   -1.173240
    2          8             0       -0.596642    1.144064    1.164630
    3          8             0       -0.423436   -0.957987   -1.073800
    4          8             0        1.580507    0.970560   -0.119910
    5         15             0        1.002986    0.873314    1.430560
    6         20             0       -0.478251    1.392423   -1.161970
    7         20             0       -1.491606   -1.003450    1.028730
    8         20             0        1.735562   -1.332771   -0.458750
 ---------------------------------------------------------------------

 SCF Done:  E(RB+HF-LYP) =  -2674.89708518     A.U. after    8 cycles

 The electronic state is 1-A.
 Alpha  occ. eigenvalues -- -145.52649-145.51628-145.51303 -77.24842 -19.26801
 Alpha  occ. eigenvalues --  -19.26195 -19.24057 -19.23906 -15.59487 -15.58482
 Alpha  occ. eigenvalues --  -15.58123 -12.72696 -12.72660 -12.72621 -12.71694
 Alpha  occ. eigenvalues --  -12.71653 -12.71620 -12.71331 -12.71322 -12.71242
 Alpha  occ. eigenvalues --   -6.70518  -4.86877  -4.86677  -4.86381  -1.96538
 Alpha  occ. eigenvalues --   -1.95639  -1.95351  -1.24684  -1.23987  -1.23941
 Alpha  occ. eigenvalues --   -1.23742  -1.23296  -1.23092  -1.22861  -1.22796
 Alpha  occ. eigenvalues --   -1.22506  -1.10497  -1.08240  -1.03350  -0.90069
 Alpha  occ. eigenvalues --   -0.64743  -0.52147  -0.51973  -0.50444  -0.49842
 Alpha  occ. eigenvalues --   -0.48948  -0.46444  -0.43442  -0.40672  -0.38971
 Alpha  occ. eigenvalues --   -0.36588  -0.34911  -0.26284
 Alpha virt. eigenvalues --   -0.20746  -0.19894  -0.18851  -0.13943  -0.13330
 Alpha virt. eigenvalues --   -0.11715  -0.11217  -0.10572  -0.09642  -0.09405
 Alpha virt. eigenvalues --   -0.08751  -0.07316  -0.06833  -0.06426  -0.06002

 Mulliken atomic charges:
              1
     1  O   -0.627362
     2  O   -0.723001
     3  O   -0.627756
     4  O   -0.702567
     5  P   -0.088138
     6  Ca   1.514333
     7  Ca   1.285219
     8  Ca   0.969273
 Sum of Mulliken charges=   1.00000

 Dipole moment (field-independent basis, Debye):
    X=    -1.3334    Y=    -1.5930    Z=    -2.9531  Tot=     3.6106
 Quadrupole moment (field-independent basis, Debye-Ang):
   XX=   -59.4228   YY=   -58.2341   ZZ=   -69.8999
   XY=   -10.3813   XZ=   -18.1123   YZ=   -19.2158

 Normal termination of Gaussian 03 at Fri Jun 12 17:39:59 2015.
