 Gaussian 03, Revision E.01,
 Gaussian 03:  EM64T-G03RevE.01 11-Sep-2007

 ----------------------------------------------------
 # b3lyp/6-31+G(d,p) int=ultrafine pop=(ReadRadii,MK)
 ----------------------------------------------------

 ------------------------------------
 Ca3PO4_172.mol2_plusQ.z51179.zip.xyz
 ------------------------------------
 Symbolic Z-matrix:
 Charge =  1 Multiplicity = 1

                         Standard orientation:
 ---------------------------------------------------------------------
 Center     Atomic     Atomic              Coordinates (Angstroms)
 Number     Number      Type              X           Y           Z
 ---------------------------------------------------------------------
    1          8             0        1.316582    0.678124    0.922479
    2          8             0       -1.245713    0.800833    0.922629
    3          8             0       -0.070610   -1.478800    0.922549
    4          8             0       -0.000080    0.000140   -1.711951
    5         15             0        0.000079   -0.000051    1.718319
    6         20             0        0.092943    1.943200   -0.570331
    7         20             0       -1.729922   -0.891181   -0.570271
    8         20             0        1.636847   -1.052100   -0.570421
 ---------------------------------------------------------------------

 SCF Done:  E(RB+HF-LYP) =  -2675.07103852     A.U. after    8 cycles

 The electronic state is 1-A.
 Alpha  occ. eigenvalues -- -145.49645-145.49638-145.49630 -77.25055 -19.21231
 Alpha  occ. eigenvalues --  -19.21223 -19.21217 -19.15949 -15.56479 -15.56473
 Alpha  occ. eigenvalues --  -15.56466 -12.69677 -12.69672 -12.69665 -12.69654
 Alpha  occ. eigenvalues --  -12.69650 -12.69642 -12.69607 -12.69602 -12.69595
 Alpha  occ. eigenvalues --   -6.70085  -4.86434  -4.86434  -4.85897  -1.93825
 Alpha  occ. eigenvalues --   -1.93743  -1.93736  -1.22378  -1.21698  -1.21695
 Alpha  occ. eigenvalues --   -1.21308  -1.21140  -1.21067  -1.21063  -1.20646
 Alpha  occ. eigenvalues --   -1.20640  -1.06758  -1.00358  -1.00349  -0.90947
 Alpha  occ. eigenvalues --   -0.62642  -0.50527  -0.50525  -0.47960  -0.43358
 Alpha  occ. eigenvalues --   -0.43355  -0.38343  -0.38341  -0.38175  -0.36142
 Alpha  occ. eigenvalues --   -0.36142  -0.34598  -0.30861
 Alpha virt. eigenvalues --   -0.19951  -0.18029  -0.18025  -0.12556  -0.12554
 Alpha virt. eigenvalues --   -0.10894  -0.09479  -0.09477  -0.08338  -0.07773
 Alpha virt. eigenvalues --   -0.06545  -0.06115  -0.06114  -0.04765  -0.04716

 Mulliken atomic charges:
              1
     1  O   -1.032178
     2  O   -1.032254
     3  O   -1.032298
     4  O   -1.251153
     5  P    1.098161
     6  Ca   1.416435
     7  Ca   1.416693
     8  Ca   1.416593
 Sum of Mulliken charges=   1.00000

 Dipole moment (field-independent basis, Debye):
    X=    -0.0010    Y=    -0.0043    Z=    -8.2334  Tot=     8.2334
 Quadrupole moment (field-independent basis, Debye-Ang):
   XX=   -40.0295   YY=   -40.0463   ZZ=   -90.0109
   XY=     0.0032   XZ=    -0.0017   YZ=     0.0001

 Normal termination of Gaussian 03 at Fri Jun 12 17:39:33 2015.
