 Gaussian 03, Revision E.01,
 Gaussian 03:  EM64T-G03RevE.01 11-Sep-2007

 ----------------------------------------------------
 # b3lyp/6-31+G(d,p) int=ultrafine pop=(ReadRadii,MK)
 ----------------------------------------------------

 -------------------------------------
 Ca3PO4_148.mol2c_plusQ.z51152.zip.xyz
 -------------------------------------
 Symbolic Z-matrix:
 Charge =  1 Multiplicity = 1

                         Standard orientation:
 ---------------------------------------------------------------------
 Center     Atomic     Atomic              Coordinates (Angstroms)
 Number     Number      Type              X           Y           Z
 ---------------------------------------------------------------------
    1          8             0       -0.716043   -1.295451    0.923290
    2          8             0       -0.762165    1.268924    0.923220
    3          8             0       -0.001931   -0.000076   -1.712120
    4          8             0        1.481627    0.026666    0.921060
    5         15             0        0.001890    0.000084    1.718210
    6         20             0        0.941900    1.702243   -0.571150
    7         20             0       -1.946419   -0.035018   -0.568610
    8         20             0        1.002506   -1.667313   -0.571080
 ---------------------------------------------------------------------

 SCF Done:  E(RB+HF-LYP) =  -2675.07103994     A.U. after    8 cycles

 The electronic state is 1-A.
 Alpha  occ. eigenvalues -- -145.49647-145.49638-145.49635 -77.25054 -19.21225
 Alpha  occ. eigenvalues --  -19.21224 -19.21223 -19.15949 -15.56481 -15.56472
 Alpha  occ. eigenvalues --  -15.56470 -12.69679 -12.69670 -12.69670 -12.69657
 Alpha  occ. eigenvalues --  -12.69648 -12.69646 -12.69610 -12.69600 -12.69600
 Alpha  occ. eigenvalues --   -6.70084  -4.86432  -4.86432  -4.85896  -1.93826
 Alpha  occ. eigenvalues --   -1.93744  -1.93739  -1.22379  -1.21699  -1.21696
 Alpha  occ. eigenvalues --   -1.21309  -1.21142  -1.21068  -1.21065  -1.20647
 Alpha  occ. eigenvalues --   -1.20642  -1.06760  -1.00356  -1.00355  -0.90945
 Alpha  occ. eigenvalues --   -0.62641  -0.50527  -0.50527  -0.47961  -0.43358
 Alpha  occ. eigenvalues --   -0.43357  -0.38343  -0.38342  -0.38176  -0.36140
 Alpha  occ. eigenvalues --   -0.36139  -0.34595  -0.30859
 Alpha virt. eigenvalues --   -0.19951  -0.18029  -0.18026  -0.12556  -0.12554
 Alpha virt. eigenvalues --   -0.10895  -0.09479  -0.09477  -0.08339  -0.07773
 Alpha virt. eigenvalues --   -0.06546  -0.06115  -0.06114  -0.04765  -0.04715

 Mulliken atomic charges:
              1
     1  O   -1.032241
     2  O   -1.032250
     3  O   -1.251188
     4  O   -1.032241
     5  P    1.098107
     6  Ca   1.416506
     7  Ca   1.416797
     8  Ca   1.416510
 Sum of Mulliken charges=   1.00000

 Dipole moment (field-independent basis, Debye):
    X=    -0.0120    Y=    -0.0005    Z=    -8.2309  Tot=     8.2309
 Quadrupole moment (field-independent basis, Debye-Ang):
   XX=   -40.0218   YY=   -40.0387   ZZ=   -90.0185
   XY=     0.0002   XZ=    -0.0462   YZ=    -0.0019

 Normal termination of Gaussian 03 at Fri Jun 12 17:37:56 2015.
