 Gaussian 03, Revision E.01,
 Gaussian 03:  EM64T-G03RevE.01 11-Sep-2007

 ----------------------------------------------------
 # b3lyp/6-31+G(d,p) int=ultrafine pop=(ReadRadii,MK)
 ----------------------------------------------------

 ------------------------------------
 Ca3PO4_41.mol2c_plusQ.z51454.zip.xyz
 ------------------------------------
 Symbolic Z-matrix:
 Charge =  1 Multiplicity = 1

                         Standard orientation:
 ---------------------------------------------------------------------
 Center     Atomic     Atomic              Coordinates (Angstroms)
 Number     Number      Type              X           Y           Z
 ---------------------------------------------------------------------
    1          8             0        0.893272   -0.009728   -0.546911
    2          8             0       -2.882778   -0.237868   -0.272441
    3          8             0       -1.927638    0.064052   -1.360101
    4          8             0       -2.176258    0.108622    0.989739
    5         15             0        1.247072    0.008922    1.354489
    6         20             0        3.153742   -0.067398   -0.506661
    7         20             0       -0.874068   -1.532928    0.008019
    8         20             0       -0.777618    1.623602   -0.041341
 ---------------------------------------------------------------------

 SCF Done:  E(RB+HF-LYP) =  -2674.72592355     A.U. after    8 cycles

 The electronic state is 1-A.
 Alpha  occ. eigenvalues -- -145.55474-145.50143-145.50133 -77.15408 -19.32909
 Alpha  occ. eigenvalues --  -19.24095 -19.23891 -19.22495 -15.62383 -15.56929
 Alpha  occ. eigenvalues --  -15.56894 -12.75600 -12.75548 -12.75486 -12.70149
 Alpha  occ. eigenvalues --  -12.70122 -12.70097 -12.70075 -12.70064 -12.70048
 Alpha  occ. eigenvalues --   -6.62198  -4.78842  -4.78103  -4.77862  -1.99442
 Alpha  occ. eigenvalues --   -1.94090  -1.93944  -1.27032  -1.26630  -1.26589
 Alpha  occ. eigenvalues --   -1.24061  -1.21888  -1.21444  -1.21279  -1.21171
 Alpha  occ. eigenvalues --   -1.21019  -1.16653  -0.99990  -0.99904  -0.84205
 Alpha  occ. eigenvalues --   -0.62241  -0.54197  -0.51754  -0.51398  -0.45105
 Alpha  occ. eigenvalues --   -0.43693  -0.42174  -0.39337  -0.37992  -0.36006
 Alpha  occ. eigenvalues --   -0.31461  -0.30005  -0.28122
 Alpha virt. eigenvalues --   -0.23532  -0.18596  -0.17186  -0.15203  -0.14659
 Alpha virt. eigenvalues --   -0.12428  -0.10767  -0.09857  -0.09368  -0.08933
 Alpha virt. eigenvalues --   -0.08467  -0.07568  -0.06952  -0.06318  -0.05850

 Mulliken atomic charges:
              1
     1  O   -0.991700
     2  O   -0.082654
     3  O   -0.585526
     4  O   -0.591575
     5  P   -0.669534
     6  Ca   1.182101
     7  Ca   1.356782
     8  Ca   1.382105
 Sum of Mulliken charges=   1.00000

 Dipole moment (field-independent basis, Debye):
    X=    11.4705    Y=    -0.1111    Z=    -5.7885  Tot=    12.8488
 Quadrupole moment (field-independent basis, Debye-Ang):
   XX=   -45.6948   YY=   -37.9788   ZZ=   -87.9875
   XY=    -0.4186   XZ=   -18.3364   YZ=    -0.5588

 Normal termination of Gaussian 03 at Fri Jun 12 17:43:24 2015.
