 Gaussian 03, Revision E.01,
 Gaussian 03:  EM64T-G03RevE.01 11-Sep-2007

 ----------------------------------------------------
 # b3lyp/6-31+G(d,p) int=ultrafine pop=(ReadRadii,MK)
 ----------------------------------------------------

 ------------------------------------
 Ca3PO4_12.mol2c_plusQ.z51132.zip.xyz
 ------------------------------------
 Symbolic Z-matrix:
 Charge =  1 Multiplicity = 1

                         Standard orientation:
 ---------------------------------------------------------------------
 Center     Atomic     Atomic              Coordinates (Angstroms)
 Number     Number      Type              X           Y           Z
 ---------------------------------------------------------------------
    1          8             0        1.151105    0.933699    0.920878
    2          8             0       -1.382096    0.529530    0.924188
    3          8             0        0.234379   -1.461701    0.923158
    4          8             0       -0.002439   -0.000674   -1.712122
    5         15             0        0.002279    0.000735    1.718498
    6         20             0        1.816952   -0.695589   -0.571952
    7         20             0       -1.511636   -1.226732   -0.568592
    8         20             0       -0.307404    1.921428   -0.570772
 ---------------------------------------------------------------------

 SCF Done:  E(RB+HF-LYP) =  -2675.07104137     A.U. after    8 cycles

 The electronic state is 1-A.
 Alpha  occ. eigenvalues -- -145.49648-145.49641-145.49636 -77.25055 -19.21237
 Alpha  occ. eigenvalues --  -19.21226 -19.21198 -19.15943 -15.56481 -15.56476
 Alpha  occ. eigenvalues --  -15.56471 -12.69679 -12.69675 -12.69670 -12.69657
 Alpha  occ. eigenvalues --  -12.69652 -12.69647 -12.69609 -12.69605 -12.69600
 Alpha  occ. eigenvalues --   -6.70084  -4.86433  -4.86433  -4.85896  -1.93827
 Alpha  occ. eigenvalues --   -1.93744  -1.93739  -1.22376  -1.21699  -1.21695
 Alpha  occ. eigenvalues --   -1.21308  -1.21142  -1.21068  -1.21065  -1.20647
 Alpha  occ. eigenvalues --   -1.20643  -1.06751  -1.00357  -1.00337  -0.90939
 Alpha  occ. eigenvalues --   -0.62637  -0.50522  -0.50516  -0.47953  -0.43352
 Alpha  occ. eigenvalues --   -0.43348  -0.38341  -0.38330  -0.38169  -0.36135
 Alpha  occ. eigenvalues --   -0.36133  -0.34590  -0.30857
 Alpha virt. eigenvalues --   -0.19951  -0.18030  -0.18027  -0.12557  -0.12554
 Alpha virt. eigenvalues --   -0.10894  -0.09479  -0.09477  -0.08340  -0.07774
 Alpha virt. eigenvalues --   -0.06545  -0.06115  -0.06114  -0.04764  -0.04716

 Mulliken atomic charges:
              1
     1  O   -1.032302
     2  O   -1.032113
     3  O   -1.032392
     4  O   -1.251075
     5  P    1.098004
     6  Ca   1.416587
     7  Ca   1.416685
     8  Ca   1.416606
 Sum of Mulliken charges=   1.00000

 Dipole moment (field-independent basis, Debye):
    X=    -0.0091    Y=    -0.0066    Z=    -8.2363  Tot=     8.2363
 Quadrupole moment (field-independent basis, Debye-Ang):
   XX=   -40.0327   YY=   -40.0288   ZZ=   -90.0183
   XY=    -0.0025   XZ=    -0.0538   YZ=    -0.0173

 Normal termination of Gaussian 03 at Fri Jun 12 17:37:20 2015.
