 Gaussian 03, Revision E.01,
 Gaussian 03:  EM64T-G03RevE.01 11-Sep-2007

 ----------------------------------------------------
 # b3lyp/6-31+G(d,p) int=ultrafine pop=(ReadRadii,MK)
 ----------------------------------------------------

 -------------------------------------
 Ca3PO4_126.mol2c_plusQ.z51128.zip.xyz
 -------------------------------------
 Symbolic Z-matrix:
 Charge =  1 Multiplicity = 1

                         Standard orientation:
 ---------------------------------------------------------------------
 Center     Atomic     Atomic              Coordinates (Angstroms)
 Number     Number      Type              X           Y           Z
 ---------------------------------------------------------------------
    1          8             0       -0.424820   -0.958005   -1.073239
    2          8             0       -0.594828    1.143097    1.164981
    3          8             0       -1.855125   -0.431429   -1.173849
    4          8             0        1.582350    0.967744   -0.119659
    5         15             0        1.004639    0.870270    1.431581
    6         20             0       -1.494361   -1.001123    1.027181
    7         20             0        1.732836   -1.334718   -0.459159
    8         20             0       -0.474985    1.394576   -1.160999
 ---------------------------------------------------------------------

 SCF Done:  E(RB+HF-LYP) =  -2674.89709061     A.U. after    8 cycles

 The electronic state is 1-A.
 Alpha  occ. eigenvalues -- -145.52625-145.51619-145.51312 -77.24824 -19.26793
 Alpha  occ. eigenvalues --  -19.26190 -19.24043 -19.23890 -15.59465 -15.58472
 Alpha  occ. eigenvalues --  -15.58131 -12.72674 -12.72637 -12.72599 -12.71685
 Alpha  occ. eigenvalues --  -12.71644 -12.71611 -12.71339 -12.71330 -12.71251
 Alpha  occ. eigenvalues --   -6.70500  -4.86859  -4.86658  -4.86363  -1.96519
 Alpha  occ. eigenvalues --   -1.95632  -1.95357  -1.24678  -1.23970  -1.23922
 Alpha  occ. eigenvalues --   -1.23732  -1.23293  -1.23086  -1.22864  -1.22796
 Alpha  occ. eigenvalues --   -1.22506  -1.10503  -1.08212  -1.03325  -0.90061
 Alpha  occ. eigenvalues --   -0.64734  -0.52140  -0.51961  -0.50425  -0.49833
 Alpha  occ. eigenvalues --   -0.48947  -0.46436  -0.43427  -0.40656  -0.38964
 Alpha  occ. eigenvalues --   -0.36582  -0.34905  -0.26278
 Alpha virt. eigenvalues --   -0.20737  -0.19891  -0.18855  -0.13939  -0.13324
 Alpha virt. eigenvalues --   -0.11708  -0.11216  -0.10571  -0.09637  -0.09401
 Alpha virt. eigenvalues --   -0.08747  -0.07314  -0.06832  -0.06426  -0.06002

 Mulliken atomic charges:
              1
     1  O   -0.627504
     2  O   -0.723503
     3  O   -0.627613
     4  O   -0.703329
     5  P   -0.088466
     6  Ca   1.286263
     7  Ca   0.970004
     8  Ca   1.514148
 Sum of Mulliken charges=   1.00000

 Dipole moment (field-independent basis, Debye):
    X=    -1.3441    Y=    -1.5923    Z=    -2.9612  Tot=     3.6208
 Quadrupole moment (field-independent basis, Debye-Ang):
   XX=   -59.4357   YY=   -58.1528   ZZ=   -69.9300
   XY=   -10.3733   XZ=   -18.1553   YZ=   -19.1879

 Normal termination of Gaussian 03 at Fri Jun 12 17:37:04 2015.
