 Gaussian 03, Revision E.01,
 Gaussian 03:  EM64T-G03RevE.01 11-Sep-2007

 ----------------------------------------------------
 # b3lyp/6-31+G(d,p) int=ultrafine pop=(ReadRadii,MK)
 ----------------------------------------------------

 ------------------------------------
 Ca3PO4_49.mol2c_plusQ.z51462.zip.xyz
 ------------------------------------
 Symbolic Z-matrix:
 Charge =  1 Multiplicity = 1

                         Standard orientation:
 ---------------------------------------------------------------------
 Center     Atomic     Atomic              Coordinates (Angstroms)
 Number     Number      Type              X           Y           Z
 ---------------------------------------------------------------------
    1          8             0       -1.481581    0.561559    1.229191
    2          8             0       -1.482281    0.562159   -1.229029
    3          8             0       -2.551880   -1.412211   -0.000019
    4          8             0        1.503319   -0.010850    0.000371
    5         15             0       -2.459771    0.150569    0.000231
    6         20             0        3.649639   -0.263609   -0.000039
    7         20             0       -0.253590   -1.485110   -0.000249
    8         20             0        0.053748    1.755530   -0.000089
 ---------------------------------------------------------------------

 SCF Done:  E(RB+HF-LYP) =  -2674.96933181     A.U. after   13 cycles

 The electronic state is 1-A.
 Alpha  occ. eigenvalues -- -145.55818-145.50086-145.50011 -77.25792 -19.21432
 Alpha  occ. eigenvalues --  -19.21422 -19.20876 -19.20359 -15.62757 -15.56916
 Alpha  occ. eigenvalues --  -15.56859 -12.75967 -12.75960 -12.75817 -12.70155
 Alpha  occ. eigenvalues --  -12.70146 -12.70055 -12.70044 -12.69982 -12.69980
 Alpha  occ. eigenvalues --   -6.70981  -4.87273  -4.87248  -4.87109  -1.99819
 Alpha  occ. eigenvalues --   -1.94149  -1.94024  -1.27416  -1.27345  -1.26673
 Alpha  occ. eigenvalues --   -1.22614  -1.21674  -1.21660  -1.21544  -1.21529
 Alpha  occ. eigenvalues --   -1.20867  -1.08502  -1.01257  -1.00617  -0.95533
 Alpha  occ. eigenvalues --   -0.60814  -0.49930  -0.49323  -0.49048  -0.43413
 Alpha  occ. eigenvalues --   -0.41468  -0.41342  -0.40872  -0.38943  -0.38107
 Alpha  occ. eigenvalues --   -0.37086  -0.35503  -0.28524
 Alpha virt. eigenvalues --   -0.25639  -0.19510  -0.18739  -0.16213  -0.15701
 Alpha virt. eigenvalues --   -0.13308  -0.10762  -0.10041  -0.09620  -0.08493
 Alpha virt. eigenvalues --   -0.08235  -0.06943  -0.06587  -0.06009  -0.05229

 Mulliken atomic charges:
              1
     1  O   -0.849725
     2  O   -0.849876
     3  O   -0.793433
     4  O   -1.237084
     5  P    0.995948
     6  Ca   1.097884
     7  Ca   1.270100
     8  Ca   1.366186
 Sum of Mulliken charges=   1.00000

 Dipole moment (field-independent basis, Debye):
    X=    17.9749    Y=     1.5969    Z=    -0.0019  Tot=    18.0457
 Quadrupole moment (field-independent basis, Debye-Ang):
   XX=   -41.7568   YY=   -43.5927   ZZ=   -85.1467
   XY=    -6.9815   XZ=    -0.0045   YZ=     0.0038

 Normal termination of Gaussian 03 at Fri Jun 12 17:44:22 2015.
