 Gaussian 03, Revision E.01,
 Gaussian 03:  EM64T-G03RevE.01 11-Sep-2007

 ----------------------------------------------------
 # b3lyp/6-31+G(d,p) int=ultrafine pop=(ReadRadii,MK)
 ----------------------------------------------------

 ------------------------------------
 Ca3PO4_17.mol2c_plusQ.z51187.zip.xyz
 ------------------------------------
 Symbolic Z-matrix:
 Charge =  1 Multiplicity = 1

                         Standard orientation:
 ---------------------------------------------------------------------
 Center     Atomic     Atomic              Coordinates (Angstroms)
 Number     Number      Type              X           Y           Z
 ---------------------------------------------------------------------
    1          8             0       -1.014137   -1.420472    0.855060
    2          8             0       -0.949670    0.422198   -0.816290
    3          8             0        0.978833   -1.430049   -0.853980
    4          8             0        0.949980    0.396741    0.835110
    5         15             0       -0.009149   -0.610341    0.005890
    6         20             0        0.036167    2.389139   -0.000410
    7         20             0        2.903371   -0.577556    0.003250
    8         20             0       -2.918679   -0.541195   -0.015220
 ---------------------------------------------------------------------

 SCF Done:  E(RB+HF-LYP) =  -2675.02389745     A.U. after   10 cycles

 The electronic state is 1-A.
 Alpha  occ. eigenvalues -- -145.53475-145.53285-145.51738 -77.32269 -19.24232
 Alpha  occ. eigenvalues --  -19.24205 -19.22174 -19.22074 -15.60362 -15.60174
 Alpha  occ. eigenvalues --  -15.58662 -12.73590 -12.73522 -12.73475 -12.73401
 Alpha  occ. eigenvalues --  -12.73335 -12.73287 -12.71878 -12.71819 -12.71770
 Alpha  occ. eigenvalues --   -6.76634  -4.93063  -4.92975  -4.92900  -1.97390
 Alpha  occ. eigenvalues --   -1.97208  -1.95739  -1.25077  -1.24982  -1.24813
 Alpha  occ. eigenvalues --   -1.24761  -1.24649  -1.24470  -1.23294  -1.23229
 Alpha  occ. eigenvalues --   -1.23050  -1.13458  -1.05324  -1.04517  -1.03727
 Alpha  occ. eigenvalues --   -0.63581  -0.55121  -0.54392  -0.53422  -0.48081
 Alpha  occ. eigenvalues --   -0.45556  -0.45065  -0.43204  -0.42774  -0.40368
 Alpha  occ. eigenvalues --   -0.39062  -0.37943  -0.25280
 Alpha virt. eigenvalues --   -0.22081  -0.20679  -0.15425  -0.13345  -0.13279
 Alpha virt. eigenvalues --   -0.12176  -0.11584  -0.11418  -0.10355  -0.08710
 Alpha virt. eigenvalues --   -0.07707  -0.07170  -0.06125  -0.05498  -0.05270

 Mulliken atomic charges:
              1
     1  O   -0.807811
     2  O   -0.997989
     3  O   -0.807024
     4  O   -0.995924
     5  P    1.777122
     6  Ca   1.017968
     7  Ca   0.905559
     8  Ca   0.908101
 Sum of Mulliken charges=   1.00000

 Dipole moment (field-independent basis, Debye):
    X=     0.0878    Y=     3.0992    Z=    -0.0512  Tot=     3.1009
 Quadrupole moment (field-independent basis, Debye-Ang):
   XX=   -10.8075   YY=   -69.8330   ZZ=   -88.7163
   XY=    -0.5317   XZ=     2.2662   YZ=     0.1108

 Normal termination of Gaussian 03 at Fri Jun 12 17:40:21 2015.
