 Gaussian 03, Revision E.01,
 Gaussian 03:  EM64T-G03RevE.01 11-Sep-2007

 ----------------------------------------------------
 # b3lyp/6-31+G(d,p) int=ultrafine pop=(ReadRadii,MK)
 ----------------------------------------------------

 -------------------------------------
 Ca3PO4_112.mol2c_plusQ.z51113.zip.xyz
 -------------------------------------
 Symbolic Z-matrix:
 Charge =  1 Multiplicity = 1

                         Standard orientation:
 ---------------------------------------------------------------------
 Center     Atomic     Atomic              Coordinates (Angstroms)
 Number     Number      Type              X           Y           Z
 ---------------------------------------------------------------------
    1          8             0       -1.655718   -0.268121    1.373788
    2          8             0       -2.775588   -0.522992    0.420298
    3          8             0        1.332242   -0.816329   -0.242122
    4          8             0       -2.299568   -0.070152   -0.918812
    5         15             0        1.246291    0.880971   -0.929072
    6         20             0        3.318872   -0.048368    0.487238
    7         20             0       -0.753467   -1.655291   -0.250122
    8         20             0       -1.340670    1.713969    0.206428
 ---------------------------------------------------------------------

 SCF Done:  E(RB+HF-LYP) =  -2674.73729187     A.U. after   10 cycles

 The electronic state is 1-A.
 Alpha  occ. eigenvalues -- -145.53544-145.50104-145.49799 -77.15711 -19.34836
 Alpha  occ. eigenvalues --  -19.25832 -19.25832 -19.21428 -15.60455 -15.56991
 Alpha  occ. eigenvalues --  -15.56623 -12.73670 -12.73627 -12.73555 -12.70191
 Alpha  occ. eigenvalues --  -12.70167 -12.70112 -12.69852 -12.69823 -12.69723
 Alpha  occ. eigenvalues --   -6.62298  -4.78829  -4.78286  -4.78016  -1.97494
 Alpha  occ. eigenvalues --   -1.94174  -1.93829  -1.25036  -1.24761  -1.24701
 Alpha  occ. eigenvalues --   -1.24662  -1.21642  -1.21534  -1.21399  -1.21290
 Alpha  occ. eigenvalues --   -1.21146  -1.17319  -1.01711  -0.99568  -0.86205
 Alpha  occ. eigenvalues --   -0.61558  -0.55750  -0.53579  -0.53253  -0.44410
 Alpha  occ. eigenvalues --   -0.42540  -0.41710  -0.41396  -0.39684  -0.37773
 Alpha  occ. eigenvalues --   -0.33677  -0.29159  -0.26236
 Alpha virt. eigenvalues --   -0.21868  -0.17840  -0.17487  -0.13766  -0.13415
 Alpha virt. eigenvalues --   -0.12066  -0.11151  -0.10381  -0.09881  -0.09439
 Alpha virt. eigenvalues --   -0.07962  -0.07221  -0.06559  -0.06115  -0.05816

 Mulliken atomic charges:
              1
     1  O   -0.608113
     2  O   -0.072735
     3  O   -0.856430
     4  O   -0.618334
     5  P   -0.709212
     6  Ca   1.173606
     7  Ca   1.482201
     8  Ca   1.209016
 Sum of Mulliken charges=   1.00000

 Dipole moment (field-independent basis, Debye):
    X=     7.1692    Y=    -1.8122    Z=     3.3395  Tot=     8.1138
 Quadrupole moment (field-independent basis, Debye-Ang):
   XX=   -37.8935   YY=   -41.4165   ZZ=   -84.9413
   XY=   -14.0312   XZ=    13.0875   YZ=     6.8963

 Normal termination of Gaussian 03 at Fri Jun 12 17:36:11 2015.
