 Gaussian 03, Revision E.01,
 Gaussian 03:  EM64T-G03RevE.01 11-Sep-2007

 ----------------------------------------------------
 # b3lyp/6-31+G(d,p) int=ultrafine pop=(ReadRadii,MK)
 ----------------------------------------------------

 -------------------------------------
 Ca3PO4_159.mol2c_plusQ.z51164.zip.xyz
 -------------------------------------
 Symbolic Z-matrix:
 Charge =  1 Multiplicity = 1

                         Standard orientation:
 ---------------------------------------------------------------------
 Center     Atomic     Atomic              Coordinates (Angstroms)
 Number     Number      Type              X           Y           Z
 ---------------------------------------------------------------------
    1          8             0        0.279939   -1.091120   -0.208798
    2          8             0       -1.592961    0.584790   -0.528578
    3          8             0        2.302919    0.897311    1.029082
    4          8             0        2.687549    0.839691   -0.491708
    5         15             0       -1.208901   -1.019040   -0.808298
    6         20             0       -3.580081   -0.006941    0.602942
    7         20             0        2.470679   -1.212779    0.336292
    8         20             0        0.545099    1.491731   -0.253008
 ---------------------------------------------------------------------

 SCF Done:  E(RB+HF-LYP) =  -2674.87852849     A.U. after   13 cycles

 The electronic state is 1-A.
 Alpha  occ. eigenvalues -- -145.52026-145.51714-145.49195 -77.25374 -19.25140
 Alpha  occ. eigenvalues --  -19.24617 -19.22919 -19.22904 -15.58821 -15.58700
 Alpha  occ. eigenvalues --  -15.56087 -12.72031 -12.72007 -12.71953 -12.71895
 Alpha  occ. eigenvalues --  -12.71869 -12.71789 -12.69325 -12.69310 -12.69144
 Alpha  occ. eigenvalues --   -6.71041  -4.87421  -4.87167  -4.86928  -1.95957
 Alpha  occ. eigenvalues --   -1.95753  -1.93360  -1.24063  -1.23453  -1.23399
 Alpha  occ. eigenvalues --   -1.23269  -1.23061  -1.22992  -1.21211  -1.21056
 Alpha  occ. eigenvalues --   -1.20779  -1.09137  -1.05648  -1.03958  -0.86800
 Alpha  occ. eigenvalues --   -0.65660  -0.53358  -0.50994  -0.49154  -0.46366
 Alpha  occ. eigenvalues --   -0.45005  -0.44122  -0.43312  -0.41647  -0.39373
 Alpha  occ. eigenvalues --   -0.33868  -0.31839  -0.25237
 Alpha virt. eigenvalues --   -0.20653  -0.19678  -0.16782  -0.13714  -0.12704
 Alpha virt. eigenvalues --   -0.12388  -0.10600  -0.10417  -0.09895  -0.08626
 Alpha virt. eigenvalues --   -0.07609  -0.07018  -0.06824  -0.06415  -0.06195

 Mulliken atomic charges:
              1
     1  O   -0.803095
     2  O   -0.733050
     3  O   -0.651661
     4  O   -0.647143
     5  P    0.128113
     6  Ca   0.753796
     7  Ca   1.502781
     8  Ca   1.450258
 Sum of Mulliken charges=   1.00000

 Dipole moment (field-independent basis, Debye):
    X=    -1.0783    Y=    -1.7855    Z=     1.9134  Tot=     2.8305
 Quadrupole moment (field-independent basis, Debye-Ang):
   XX=   -38.4046   YY=   -56.0303   ZZ=   -79.1140
   XY=   -31.1375   XZ=    -3.6477   YZ=    -6.8575

 Normal termination of Gaussian 03 at Fri Jun 12 17:39:26 2015.
