 Gaussian 03, Revision E.01,
 Gaussian 03:  EM64T-G03RevE.01 11-Sep-2007

 ----------------------------------------------------
 # b3lyp/6-31+G(d,p) int=ultrafine pop=(ReadRadii,MK)
 ----------------------------------------------------

 -------------------------------------
 Ca3PO4_178.mol2c_plusQ.z51185.zip.xyz
 -------------------------------------
 Symbolic Z-matrix:
 Charge =  1 Multiplicity = 1

                         Standard orientation:
 ---------------------------------------------------------------------
 Center     Atomic     Atomic              Coordinates (Angstroms)
 Number     Number      Type              X           Y           Z
 ---------------------------------------------------------------------
    1          8             0       -0.805430    1.244265    0.920760
    2          8             0       -0.673259   -1.316879    0.924530
    3          8             0        1.479267    0.076785    0.921780
    4          8             0       -0.000221   -0.002339   -1.711340
    5         15             0        0.000239    0.001701    1.718130
    6         20             0        0.885731    1.732567   -0.571740
    7         20             0        1.058808   -1.633771   -0.569080
    8         20             0       -1.944861   -0.100805   -0.570070
 ---------------------------------------------------------------------

 SCF Done:  E(RB+HF-LYP) =  -2675.07103948     A.U. after    8 cycles

 The electronic state is 1-A.
 Alpha  occ. eigenvalues -- -145.49652-145.49636-145.49625 -77.25044 -19.21272
 Alpha  occ. eigenvalues --  -19.21194 -19.21162 -19.15926 -15.56485 -15.56470
 Alpha  occ. eigenvalues --  -15.56459 -12.69684 -12.69669 -12.69661 -12.69658
 Alpha  occ. eigenvalues --  -12.69646 -12.69635 -12.69614 -12.69599 -12.69588
 Alpha  occ. eigenvalues --   -6.70073  -4.86421  -4.86421  -4.85885  -1.93822
 Alpha  occ. eigenvalues --   -1.93742  -1.93729  -1.22368  -1.21694  -1.21686
 Alpha  occ. eigenvalues --   -1.21301  -1.21137  -1.21065  -1.21057  -1.20645
 Alpha  occ. eigenvalues --   -1.20633  -1.06742  -1.00364  -1.00309  -0.90919
 Alpha  occ. eigenvalues --   -0.62626  -0.50518  -0.50502  -0.47942  -0.43345
 Alpha  occ. eigenvalues --   -0.43337  -0.38339  -0.38311  -0.38160  -0.36118
 Alpha  occ. eigenvalues --   -0.36112  -0.34570  -0.30845
 Alpha virt. eigenvalues --   -0.19948  -0.18031  -0.18022  -0.12555  -0.12549
 Alpha virt. eigenvalues --   -0.10893  -0.09479  -0.09475  -0.08339  -0.07771
 Alpha virt. eigenvalues --   -0.06545  -0.06114  -0.06113  -0.04762  -0.04714

 Mulliken atomic charges:
              1
     1  O   -1.031948
     2  O   -1.032594
     3  O   -1.032200
     4  O   -1.251048
     5  P    1.097823
     6  Ca   1.416481
     7  Ca   1.416450
     8  Ca   1.417034
 Sum of Mulliken charges=   1.00000

 Dipole moment (field-independent basis, Debye):
    X=    -0.0056    Y=    -0.0134    Z=    -8.2334  Tot=     8.2334
 Quadrupole moment (field-independent basis, Debye-Ang):
   XX=   -39.9888   YY=   -40.0339   ZZ=   -90.0165
   XY=     0.0162   XZ=    -0.0033   YZ=    -0.0497

 Normal termination of Gaussian 03 at Fri Jun 12 17:40:02 2015.
