 Gaussian 03, Revision E.01,
 Gaussian 03:  EM64T-G03RevE.01 11-Sep-2007

 ----------------------------------------------------
 # b3lyp/6-31+G(d,p) int=ultrafine pop=(ReadRadii,MK)
 ----------------------------------------------------

 -------------------------------------
 Ca3PO4_219.mol2c_plusQ.z51430.zip.xyz
 -------------------------------------
 Symbolic Z-matrix:
 Charge =  1 Multiplicity = 1

                         Standard orientation:
 ---------------------------------------------------------------------
 Center     Atomic     Atomic              Coordinates (Angstroms)
 Number     Number      Type              X           Y           Z
 ---------------------------------------------------------------------
    1          8             0        1.666982   -1.500689    0.000089
    2          8             0        2.949861    0.670212    0.001399
    3          8             0       -0.830439    0.944480   -0.002091
    4          8             0       -2.841208   -1.414021    0.001369
    5         15             0        3.073412   -0.877468    0.001219
    6         20             0       -3.085139    0.692389    0.001309
    7         20             0        1.075620    1.945121   -0.000751
    8         20             0       -0.673618   -1.459400   -0.001781
 ---------------------------------------------------------------------

 SCF Done:  E(RB+HF-LYP) =  -2675.00579546     A.U. after   10 cycles

 The electronic state is 1-A.
 Alpha  occ. eigenvalues -- -145.53273-145.47072-145.44487 -77.29407 -19.27577
 Alpha  occ. eigenvalues --  -19.27198 -19.17715 -19.10351 -15.60165 -15.53971
 Alpha  occ. eigenvalues --  -15.51446 -12.73421 -12.73369 -12.73208 -12.67211
 Alpha  occ. eigenvalues --  -12.67129 -12.67050 -12.64722 -12.64631 -12.64476
 Alpha  occ. eigenvalues --   -6.74956  -4.91396  -4.91172  -4.90736  -1.97365
 Alpha  occ. eigenvalues --   -1.91267  -1.88896  -1.25218  -1.25067  -1.24235
 Alpha  occ. eigenvalues --   -1.19134  -1.18808  -1.18226  -1.17001  -1.16389
 Alpha  occ. eigenvalues --   -1.16277  -1.13245  -1.07847  -0.92326  -0.84315
 Alpha  occ. eigenvalues --   -0.66980  -0.56445  -0.52401  -0.52186  -0.45142
 Alpha  occ. eigenvalues --   -0.43250  -0.40556  -0.38449  -0.37474  -0.36314
 Alpha  occ. eigenvalues --   -0.29849  -0.28438  -0.28141
 Alpha virt. eigenvalues --   -0.21375  -0.19379  -0.18289  -0.14056  -0.13458
 Alpha virt. eigenvalues --   -0.11735  -0.10631  -0.10445  -0.08687  -0.08514
 Alpha virt. eigenvalues --   -0.07774  -0.07164  -0.06437  -0.06131  -0.05562

 Mulliken atomic charges:
              1
     1  O   -0.683356
     2  O   -0.720068
     3  O   -1.345715
     4  O   -1.119760
     5  P    0.671028
     6  Ca   1.326281
     7  Ca   1.524224
     8  Ca   1.347366
 Sum of Mulliken charges=   1.00000

 Dipole moment (field-independent basis, Debye):
    X=    -0.3861    Y=    11.4215    Z=    -0.0065  Tot=    11.4281
 Quadrupole moment (field-independent basis, Debye-Ang):
   XX=   -59.0440   YY=   -46.8964   ZZ=   -69.1139
   XY=   -17.5262   XZ=    -0.0177   YZ=     0.0365

 Normal termination of Gaussian 03 at Fri Jun 12 17:42:21 2015.
