 Gaussian 03, Revision E.01,
 Gaussian 03:  EM64T-G03RevE.01 11-Sep-2007

 ----------------------------------------------------
 # b3lyp/6-31+G(d,p) int=ultrafine pop=(ReadRadii,MK)
 ----------------------------------------------------

 -----------------------------------
 Ca3PO4_23.mol2_plusQ.z51434.zip.xyz
 -----------------------------------
 Symbolic Z-matrix:
 Charge =  1 Multiplicity = 1

                         Standard orientation:
 ---------------------------------------------------------------------
 Center     Atomic     Atomic              Coordinates (Angstroms)
 Number     Number      Type              X           Y           Z
 ---------------------------------------------------------------------
    1          8             0        0.278981   -1.092579   -0.205382
    2          8             0        2.305871    0.897242    1.027088
    3          8             0        2.686211    0.837792   -0.494832
    4          8             0       -1.591599    0.584981   -0.527742
    5         15             0       -1.208279   -1.018569   -0.808262
    6         20             0        0.545651    1.493911   -0.250722
    7         20             0        2.469911   -1.213678    0.335828
    8         20             0       -3.581139   -0.007280    0.601438
 ---------------------------------------------------------------------

 SCF Done:  E(RB+HF-LYP) =  -2674.87852834     A.U. after   13 cycles

 The electronic state is 1-A.
 Alpha  occ. eigenvalues -- -145.52013-145.51712-145.49215 -77.25374 -19.25134
 Alpha  occ. eigenvalues --  -19.24615 -19.22922 -19.22909 -15.58808 -15.58699
 Alpha  occ. eigenvalues --  -15.56106 -12.72019 -12.71995 -12.71940 -12.71893
 Alpha  occ. eigenvalues --  -12.71868 -12.71788 -12.69344 -12.69330 -12.69163
 Alpha  occ. eigenvalues --   -6.71041  -4.87420  -4.87167  -4.86927  -1.95946
 Alpha  occ. eigenvalues --   -1.95751  -1.93376  -1.24054  -1.23442  -1.23389
 Alpha  occ. eigenvalues --   -1.23266  -1.23058  -1.22990  -1.21225  -1.21072
 Alpha  occ. eigenvalues --   -1.20792  -1.09138  -1.05647  -1.03958  -0.86805
 Alpha  occ. eigenvalues --   -0.65655  -0.53356  -0.50990  -0.49153  -0.46367
 Alpha  occ. eigenvalues --   -0.45007  -0.44124  -0.43304  -0.41638  -0.39369
 Alpha  occ. eigenvalues --   -0.33874  -0.31842  -0.25234
 Alpha virt. eigenvalues --   -0.20650  -0.19671  -0.16795  -0.13712  -0.12705
 Alpha virt. eigenvalues --   -0.12387  -0.10595  -0.10412  -0.09898  -0.08623
 Alpha virt. eigenvalues --   -0.07606  -0.07019  -0.06825  -0.06417  -0.06198

 Mulliken atomic charges:
              1
     1  O   -0.802424
     2  O   -0.651808
     3  O   -0.647112
     4  O   -0.732943
     5  P    0.128209
     6  Ca   1.450480
     7  Ca   1.502702
     8  Ca   0.752895
 Sum of Mulliken charges=   1.00000

 Dipole moment (field-independent basis, Debye):
    X=    -1.0756    Y=    -1.7695    Z=     1.9227  Tot=     2.8258
 Quadrupole moment (field-independent basis, Debye-Ang):
   XX=   -38.4856   YY=   -55.9665   ZZ=   -79.1227
   XY=   -31.1133   XZ=    -3.6019   YZ=    -6.8161

 Normal termination of Gaussian 03 at Fri Jun 12 17:43:03 2015.
