 Gaussian 03, Revision E.01,
 Gaussian 03:  EM64T-G03RevE.01 11-Sep-2007

 ----------------------------------------------------
 # b3lyp/6-31+G(d,p) int=ultrafine pop=(ReadRadii,MK)
 ----------------------------------------------------

 -------------------------------------
 Ca3PO4_181.mol2c_plusQ.z51189.zip.xyz
 -------------------------------------
 Symbolic Z-matrix:
 Charge =  1 Multiplicity = 1

                         Standard orientation:
 ---------------------------------------------------------------------
 Center     Atomic     Atomic              Coordinates (Angstroms)
 Number     Number      Type              X           Y           Z
 ---------------------------------------------------------------------
    1          8             0       -1.668629   -1.503982   -0.000090
    2          8             0       -2.946070    0.670168    0.001070
    3          8             0        0.830110    0.943810   -0.000190
    4          8             0        2.839921   -1.415839    0.000340
    5         15             0       -3.073389   -0.877402   -0.000510
    6         20             0        0.672111   -1.458210    0.000140
    7         20             0       -1.074301    1.947839   -0.000060
    8         20             0        3.085100    0.690761   -0.000150
 ---------------------------------------------------------------------

 SCF Done:  E(RB+HF-LYP) =  -2675.00579396     A.U. after   10 cycles

 The electronic state is 1-A.
 Alpha  occ. eigenvalues -- -145.53282-145.47084-145.44471 -77.29398 -19.27567
 Alpha  occ. eigenvalues --  -19.27185 -19.17725 -19.10354 -15.60175 -15.53983
 Alpha  occ. eigenvalues --  -15.51430 -12.73431 -12.73378 -12.73218 -12.67223
 Alpha  occ. eigenvalues --  -12.67141 -12.67062 -12.64706 -12.64615 -12.64461
 Alpha  occ. eigenvalues --   -6.74947  -4.91387  -4.91163  -4.90726  -1.97373
 Alpha  occ. eigenvalues --   -1.91278  -1.88882  -1.25227  -1.25073  -1.24245
 Alpha  occ. eigenvalues --   -1.19145  -1.18817  -1.18236  -1.16987  -1.16377
 Alpha  occ. eigenvalues --   -1.16265  -1.13232  -1.07836  -0.92339  -0.84315
 Alpha  occ. eigenvalues --   -0.66972  -0.56436  -0.52387  -0.52175  -0.45132
 Alpha  occ. eigenvalues --   -0.43236  -0.40548  -0.38462  -0.37487  -0.36326
 Alpha  occ. eigenvalues --   -0.29847  -0.28437  -0.28141
 Alpha virt. eigenvalues --   -0.21387  -0.19371  -0.18297  -0.14047  -0.13465
 Alpha virt. eigenvalues --   -0.11748  -0.10628  -0.10451  -0.08680  -0.08516
 Alpha virt. eigenvalues --   -0.07774  -0.07168  -0.06435  -0.06126  -0.05565

 Mulliken atomic charges:
              1
     1  O   -0.683256
     2  O   -0.720650
     3  O   -1.345915
     4  O   -1.119538
     5  P    0.671283
     6  Ca   1.347364
     7  Ca   1.524584
     8  Ca   1.326127
 Sum of Mulliken charges=   1.00000

 Dipole moment (field-independent basis, Debye):
    X=     0.3918    Y=    11.4569    Z=    -0.0041  Tot=    11.4636
 Quadrupole moment (field-independent basis, Debye-Ang):
   XX=   -59.0033   YY=   -46.9038   ZZ=   -69.1151
   XY=    17.5044   XZ=     0.0010   YZ=    -0.0036

 Normal termination of Gaussian 03 at Fri Jun 12 17:40:18 2015.
