 Gaussian 03, Revision E.01,
 Gaussian 03:  EM64T-G03RevE.01 11-Sep-2007

 ----------------------------------------------------
 # b3lyp/6-31+G(d,p) int=ultrafine pop=(ReadRadii,MK)
 ----------------------------------------------------

 -------------------------------------
 Ca3PO4_190.mol2c_plusQ.z51199.zip.xyz
 -------------------------------------
 Symbolic Z-matrix:
 Charge =  1 Multiplicity = 1

                         Standard orientation:
 ---------------------------------------------------------------------
 Center     Atomic     Atomic              Coordinates (Angstroms)
 Number     Number      Type              X           Y           Z
 ---------------------------------------------------------------------
    1          8             0       -2.938378    0.669291    0.010961
    2          8             0        0.827952    0.942180   -0.004609
    3          8             0       -1.669718   -1.510259   -0.003599
    4          8             0        2.838392   -1.416210    0.006361
    5         15             0       -3.071528   -0.877429   -0.001409
    6         20             0       -1.072348    1.953831   -0.001489
    7         20             0        0.670102   -1.459320   -0.001379
    8         20             0        3.082592    0.689560    0.000281
 ---------------------------------------------------------------------

 SCF Done:  E(RB+HF-LYP) =  -2675.00577605     A.U. after   10 cycles

 The electronic state is 1-A.
 Alpha  occ. eigenvalues -- -145.53297-145.47061-145.44456 -77.29374 -19.27559
 Alpha  occ. eigenvalues --  -19.27154 -19.17722 -19.10346 -15.60189 -15.53961
 Alpha  occ. eigenvalues --  -15.51415 -12.73445 -12.73392 -12.73233 -12.67201
 Alpha  occ. eigenvalues --  -12.67119 -12.67039 -12.64691 -12.64600 -12.64446
 Alpha  occ. eigenvalues --   -6.74923  -4.91363  -4.91140  -4.90703  -1.97386
 Alpha  occ. eigenvalues --   -1.91259  -1.88867  -1.25238  -1.25081  -1.24258
 Alpha  occ. eigenvalues --   -1.19126  -1.18801  -1.18219  -1.16973  -1.16363
 Alpha  occ. eigenvalues --   -1.16251  -1.13218  -1.07824  -0.92341  -0.84307
 Alpha  occ. eigenvalues --   -0.66958  -0.56429  -0.52366  -0.52160  -0.45121
 Alpha  occ. eigenvalues --   -0.43221  -0.40522  -0.38466  -0.37492  -0.36329
 Alpha  occ. eigenvalues --   -0.29838  -0.28431  -0.28135
 Alpha virt. eigenvalues --   -0.21410  -0.19348  -0.18296  -0.14032  -0.13476
 Alpha virt. eigenvalues --   -0.11772  -0.10628  -0.10448  -0.08670  -0.08512
 Alpha virt. eigenvalues --   -0.07769  -0.07169  -0.06430  -0.06115  -0.05567

 Mulliken atomic charges:
              1
     1  O   -0.721063
     2  O   -1.346287
     3  O   -0.683048
     4  O   -1.119210
     5  P    0.671205
     6  Ca   1.524901
     7  Ca   1.348204
     8  Ca   1.325298
 Sum of Mulliken charges=   1.00000

 Dipole moment (field-independent basis, Debye):
    X=     0.3892    Y=    11.5059    Z=    -0.0455  Tot=    11.5126
 Quadrupole moment (field-independent basis, Debye-Ang):
   XX=   -59.0374   YY=   -46.7593   ZZ=   -69.1175
   XY=    17.4045   XZ=    -0.0061   YZ=     0.0223

 Normal termination of Gaussian 03 at Fri Jun 12 17:40:36 2015.
