 Gaussian 03, Revision E.01,
 Gaussian 03:  EM64T-G03RevE.01 11-Sep-2007

 ----------------------------------------------------
 # b3lyp/6-31+G(d,p) int=ultrafine pop=(ReadRadii,MK)
 ----------------------------------------------------

 -----------------------------------
 Ca3PO4_95.mol2_plusQ.z51513.zip.xyz
 -----------------------------------
 Symbolic Z-matrix:
 Charge =  1 Multiplicity = 1

                         Standard orientation:
 ---------------------------------------------------------------------
 Center     Atomic     Atomic              Coordinates (Angstroms)
 Number     Number      Type              X           Y           Z
 ---------------------------------------------------------------------
    1          8             0        0.083865   -1.477588    0.922979
    2          8             0       -1.322387    0.667640    0.921799
    3          8             0        1.238125    0.812979    0.922069
    4          8             0        0.000164   -0.001521   -1.711821
    5         15             0       -0.000291    0.002131    1.718069
    6         20             0        1.737845   -0.876535   -0.569131
    7         20             0       -1.627337   -1.067613   -0.569331
    8         20             0       -0.110196    1.941946   -0.572101
 ---------------------------------------------------------------------

 SCF Done:  E(RB+HF-LYP) =  -2675.07103659     A.U. after    8 cycles

 The electronic state is 1-A.
 Alpha  occ. eigenvalues -- -145.49638-145.49633-145.49631 -77.25053 -19.21250
 Alpha  occ. eigenvalues --  -19.21250 -19.21162 -19.15936 -15.56472 -15.56468
 Alpha  occ. eigenvalues --  -15.56467 -12.69669 -12.69667 -12.69666 -12.69647
 Alpha  occ. eigenvalues --  -12.69645 -12.69643 -12.69599 -12.69597 -12.69596
 Alpha  occ. eigenvalues --   -6.70083  -4.86431  -4.86431  -4.85895  -1.93821
 Alpha  occ. eigenvalues --   -1.93736  -1.93735  -1.22374  -1.21693  -1.21692
 Alpha  occ. eigenvalues --   -1.21303  -1.21136  -1.21062  -1.21061  -1.20639
 Alpha  occ. eigenvalues --   -1.20639  -1.06753  -1.00373  -1.00328  -0.90934
 Alpha  occ. eigenvalues --   -0.62640  -0.50529  -0.50518  -0.47956  -0.43355
 Alpha  occ. eigenvalues --   -0.43352  -0.38353  -0.38327  -0.38175  -0.36133
 Alpha  occ. eigenvalues --   -0.36128  -0.34586  -0.30858
 Alpha virt. eigenvalues --   -0.19948  -0.18025  -0.18024  -0.12553  -0.12552
 Alpha virt. eigenvalues --   -0.10892  -0.09477  -0.09476  -0.08337  -0.07770
 Alpha virt. eigenvalues --   -0.06545  -0.06114  -0.06113  -0.04764  -0.04716

 Mulliken atomic charges:
              1
     1  O   -1.031927
     2  O   -1.032318
     3  O   -1.032366
     4  O   -1.251006
     5  P    1.097957
     6  Ca   1.416646
     7  Ca   1.416608
     8  Ca   1.416406
 Sum of Mulliken charges=   1.00000

 Dipole moment (field-independent basis, Debye):
    X=     0.0021    Y=    -0.0139    Z=    -8.2286  Tot=     8.2286
 Quadrupole moment (field-independent basis, Debye-Ang):
   XX=   -40.0268   YY=   -40.0443   ZZ=   -90.0136
   XY=     0.0016   XZ=     0.0051   YZ=    -0.0486

 Normal termination of Gaussian 03 at Fri Jun 12 17:46:23 2015.
