 Gaussian 03, Revision E.01,
 Gaussian 03:  EM64T-G03RevE.01 11-Sep-2007

 ----------------------------------------------------
 # b3lyp/6-31+G(d,p) int=ultrafine pop=(ReadRadii,MK)
 ----------------------------------------------------

 ------------------------------------
 Ca3PO4_62.mol2c_plusQ.z51477.zip.xyz
 ------------------------------------
 Symbolic Z-matrix:
 Charge =  1 Multiplicity = 1

                         Standard orientation:
 ---------------------------------------------------------------------
 Center     Atomic     Atomic              Coordinates (Angstroms)
 Number     Number      Type              X           Y           Z
 ---------------------------------------------------------------------
    1          8             0        0.834270    1.223086    0.922271
    2          8             0        0.641818   -1.333995    0.922511
    3          8             0       -1.476472    0.111136    0.922401
    4          8             0        0.000239   -0.000090   -1.712299
    5         15             0       -0.000131    0.000169    1.717581
    6         20             0       -1.096583   -1.607358   -0.570059
    7         20             0        1.940435   -0.146071   -0.569839
    8         20             0       -0.843696    1.753247   -0.570239
 ---------------------------------------------------------------------

 SCF Done:  E(RB+HF-LYP) =  -2675.07103378     A.U. after    8 cycles

 The electronic state is 1-A.
 Alpha  occ. eigenvalues -- -145.49643-145.49637-145.49637 -77.25050 -19.21234
 Alpha  occ. eigenvalues --  -19.21226 -19.21225 -19.15946 -15.56477 -15.56473
 Alpha  occ. eigenvalues --  -15.56472 -12.69673 -12.69672 -12.69672 -12.69651
 Alpha  occ. eigenvalues --  -12.69650 -12.69648 -12.69603 -12.69603 -12.69602
 Alpha  occ. eigenvalues --   -6.70082  -4.86431  -4.86431  -4.85894  -1.93826
 Alpha  occ. eigenvalues --   -1.93742  -1.93741  -1.22382  -1.21699  -1.21698
 Alpha  occ. eigenvalues --   -1.21309  -1.21142  -1.21067  -1.21067  -1.20645
 Alpha  occ. eigenvalues --   -1.20644  -1.06780  -1.00372  -1.00370  -0.90942
 Alpha  occ. eigenvalues --   -0.62645  -0.50542  -0.50541  -0.47976  -0.43370
 Alpha  occ. eigenvalues --   -0.43370  -0.38354  -0.38353  -0.38187  -0.36138
 Alpha  occ. eigenvalues --   -0.36137  -0.34592  -0.30852
 Alpha virt. eigenvalues --   -0.19950  -0.18028  -0.18027  -0.12555  -0.12555
 Alpha virt. eigenvalues --   -0.10894  -0.09478  -0.09478  -0.08339  -0.07772
 Alpha virt. eigenvalues --   -0.06545  -0.06114  -0.06114  -0.04764  -0.04713

 Mulliken atomic charges:
              1
     1  O   -1.032106
     2  O   -1.032101
     3  O   -1.032178
     4  O   -1.251022
     5  P    1.097951
     6  Ca   1.416469
     7  Ca   1.416525
     8  Ca   1.416464
 Sum of Mulliken charges=   1.00000

 Dipole moment (field-independent basis, Debye):
    X=     0.0016    Y=    -0.0012    Z=    -8.2262  Tot=     8.2262
 Quadrupole moment (field-independent basis, Debye-Ang):
   XX=   -40.0254   YY=   -40.0306   ZZ=   -90.0364
   XY=    -0.0006   XZ=     0.0073   YZ=    -0.0025

 Normal termination of Gaussian 03 at Fri Jun 12 17:44:28 2015.
