 Gaussian 03, Revision E.01,
 Gaussian 03:  EM64T-G03RevE.01 11-Sep-2007

 ----------------------------------------------------
 # b3lyp/6-31+G(d,p) int=ultrafine pop=(ReadRadii,MK)
 ----------------------------------------------------

 -------------------------------------
 Ca3PO4_186.mol2c_plusQ.z51194.zip.xyz
 -------------------------------------
 Symbolic Z-matrix:
 Charge =  1 Multiplicity = 1

                         Standard orientation:
 ---------------------------------------------------------------------
 Center     Atomic     Atomic              Coordinates (Angstroms)
 Number     Number      Type              X           Y           Z
 ---------------------------------------------------------------------
    1          8             0       -1.180358    0.893530    0.922698
    2          8             0       -0.182661   -1.469026    0.923138
    3          8             0        1.364697    0.576033    0.921538
    4          8             0       -0.001076   -0.000200   -1.712162
    5         15             0        0.001084    0.000437    1.718188
    6         20             0        0.240589    1.930640   -0.570572
    7         20             0       -1.793020   -0.756930   -0.569312
    8         20             0        1.551378   -1.174173   -0.570842
 ---------------------------------------------------------------------

 SCF Done:  E(RB+HF-LYP) =  -2675.07103786     A.U. after    8 cycles

 The electronic state is 1-A.
 Alpha  occ. eigenvalues -- -145.49642-145.49637-145.49632 -77.25056 -19.21232
 Alpha  occ. eigenvalues --  -19.21230 -19.21207 -19.15942 -15.56476 -15.56473
 Alpha  occ. eigenvalues --  -15.56467 -12.69673 -12.69672 -12.69666 -12.69651
 Alpha  occ. eigenvalues --  -12.69649 -12.69643 -12.69603 -12.69602 -12.69596
 Alpha  occ. eigenvalues --   -6.70086  -4.86434  -4.86434  -4.85898  -1.93824
 Alpha  occ. eigenvalues --   -1.93741  -1.93737  -1.22378  -1.21697  -1.21695
 Alpha  occ. eigenvalues --   -1.21307  -1.21140  -1.21066  -1.21064  -1.20644
 Alpha  occ. eigenvalues --   -1.20641  -1.06762  -1.00362  -1.00350  -0.90940
 Alpha  occ. eigenvalues --   -0.62642  -0.50530  -0.50527  -0.47963  -0.43359
 Alpha  occ. eigenvalues --   -0.43357  -0.38346  -0.38339  -0.38177  -0.36136
 Alpha  occ. eigenvalues --   -0.36135  -0.34592  -0.30859
 Alpha virt. eigenvalues --   -0.19950  -0.18028  -0.18025  -0.12556  -0.12553
 Alpha virt. eigenvalues --   -0.10894  -0.09478  -0.09477  -0.08339  -0.07772
 Alpha virt. eigenvalues --   -0.06545  -0.06114  -0.06114  -0.04765  -0.04715

 Mulliken atomic charges:
              1
     1  O   -1.032186
     2  O   -1.032360
     3  O   -1.032311
     4  O   -1.251017
     5  P    1.098114
     6  Ca   1.416521
     7  Ca   1.416672
     8  Ca   1.416566
 Sum of Mulliken charges=   1.00000

 Dipole moment (field-independent basis, Debye):
    X=    -0.0056    Y=    -0.0029    Z=    -8.2303  Tot=     8.2303
 Quadrupole moment (field-independent basis, Debye-Ang):
   XX=   -40.0323   YY=   -40.0350   ZZ=   -90.0203
   XY=     0.0017   XZ=    -0.0258   YZ=    -0.0028

 Normal termination of Gaussian 03 at Fri Jun 12 17:40:23 2015.
