 Gaussian 03, Revision E.01,
 Gaussian 03:  EM64T-G03RevE.01 11-Sep-2007

 ----------------------------------------------------
 # b3lyp/6-31+G(d,p) int=ultrafine pop=(ReadRadii,MK)
 ----------------------------------------------------

 ------------------------------------
 Ca3PO4_83.mol2c_plusQ.z51500.zip.xyz
 ------------------------------------
 Symbolic Z-matrix:
 Charge =  1 Multiplicity = 1

                         Standard orientation:
 ---------------------------------------------------------------------
 Center     Atomic     Atomic              Coordinates (Angstroms)
 Number     Number      Type              X           Y           Z
 ---------------------------------------------------------------------
    1          8             0        1.407556    0.461343    0.921929
    2          8             0       -0.000283   -0.001290   -1.711871
    3          8             0       -1.102082    0.989662    0.921949
    4          8             0       -0.304894   -1.448358    0.922879
    5         15             0        0.000432    0.001963    1.718039
    6         20             0       -1.849687   -0.605574   -0.569271
    7         20             0        1.448540   -1.299901   -0.569291
    8         20             0        0.400705    1.903459   -0.571921
 ---------------------------------------------------------------------

 SCF Done:  E(RB+HF-LYP) =  -2675.07105182     A.U. after    8 cycles

 The electronic state is 1-A.
 Alpha  occ. eigenvalues -- -145.49638-145.49632-145.49631 -77.25055 -19.21252
 Alpha  occ. eigenvalues --  -19.21252 -19.21160 -19.15933 -15.56471 -15.56467
 Alpha  occ. eigenvalues --  -15.56467 -12.69668 -12.69667 -12.69666 -12.69645
 Alpha  occ. eigenvalues --  -12.69645 -12.69643 -12.69598 -12.69597 -12.69596
 Alpha  occ. eigenvalues --   -6.70085  -4.86433  -4.86433  -4.85897  -1.93820
 Alpha  occ. eigenvalues --   -1.93736  -1.93735  -1.22374  -1.21693  -1.21691
 Alpha  occ. eigenvalues --   -1.21303  -1.21136  -1.21062  -1.21060  -1.20639
 Alpha  occ. eigenvalues --   -1.20639  -1.06753  -1.00374  -1.00327  -0.90931
 Alpha  occ. eigenvalues --   -0.62641  -0.50530  -0.50518  -0.47957  -0.43356
 Alpha  occ. eigenvalues --   -0.43352  -0.38354  -0.38327  -0.38176  -0.36130
 Alpha  occ. eigenvalues --   -0.36126  -0.34585  -0.30858
 Alpha virt. eigenvalues --   -0.19948  -0.18025  -0.18025  -0.12553  -0.12552
 Alpha virt. eigenvalues --   -0.10892  -0.09477  -0.09477  -0.08338  -0.07770
 Alpha virt. eigenvalues --   -0.06545  -0.06114  -0.06113  -0.04765  -0.04717

 Mulliken atomic charges:
              1
     1  O   -1.032364
     2  O   -1.250961
     3  O   -1.032387
     4  O   -1.031889
     5  P    1.097901
     6  Ca   1.416641
     7  Ca   1.416621
     8  Ca   1.416439
 Sum of Mulliken charges=   1.00000

 Dipole moment (field-independent basis, Debye):
    X=    -0.0027    Y=    -0.0128    Z=    -8.2280  Tot=     8.2280
 Quadrupole moment (field-independent basis, Debye-Ang):
   XX=   -40.0297   YY=   -40.0419   ZZ=   -90.0151
   XY=    -0.0025   XZ=    -0.0093   YZ=    -0.0429

 Normal termination of Gaussian 03 at Fri Jun 12 17:45:47 2015.
