 Gaussian 03, Revision E.01,
 Gaussian 03:  EM64T-G03RevE.01 11-Sep-2007

 ----------------------------------------------------
 # b3lyp/6-31+G(d,p) int=ultrafine pop=(ReadRadii,MK)
 ----------------------------------------------------

 ------------------------------------
 Ca3PO4_59.mol2c_plusQ.z51473.zip.xyz
 ------------------------------------
 Symbolic Z-matrix:
 Charge =  1 Multiplicity = 1

                         Standard orientation:
 ---------------------------------------------------------------------
 Center     Atomic     Atomic              Coordinates (Angstroms)
 Number     Number      Type              X           Y           Z
 ---------------------------------------------------------------------
    1          8             0       -1.278727    0.746702    0.922698
    2          8             0        0.000187    0.000879   -1.712242
    3          8             0       -0.007950   -1.481328    0.921808
    4          8             0        1.286065    0.732570    0.923028
    5         15             0        0.000364   -0.001721    1.718398
    6         20             0        0.010751    1.946171   -0.568952
    7         20             0        1.679768   -0.981434   -0.571092
    8         20             0       -1.690622   -0.962975   -0.570872
 ---------------------------------------------------------------------

 SCF Done:  E(RB+HF-LYP) =  -2675.07103933     A.U. after    8 cycles

 The electronic state is 1-A.
 Alpha  occ. eigenvalues -- -145.49642-145.49636-145.49633 -77.25051 -19.21262
 Alpha  occ. eigenvalues --  -19.21241 -19.21157 -19.15942 -15.56476 -15.56471
 Alpha  occ. eigenvalues --  -15.56469 -12.69673 -12.69670 -12.69668 -12.69651
 Alpha  occ. eigenvalues --  -12.69647 -12.69645 -12.69603 -12.69600 -12.69598
 Alpha  occ. eigenvalues --   -6.70081  -4.86430  -4.86429  -4.85893  -1.93824
 Alpha  occ. eigenvalues --   -1.93740  -1.93737  -1.22376  -1.21697  -1.21693
 Alpha  occ. eigenvalues --   -1.21306  -1.21139  -1.21066  -1.21062  -1.20643
 Alpha  occ. eigenvalues --   -1.20640  -1.06755  -1.00377  -1.00322  -0.90939
 Alpha  occ. eigenvalues --   -0.62639  -0.50530  -0.50516  -0.47957  -0.43356
 Alpha  occ. eigenvalues --   -0.43351  -0.38353  -0.38323  -0.38172  -0.36137
 Alpha  occ. eigenvalues --   -0.36132  -0.34591  -0.30859
 Alpha virt. eigenvalues --   -0.19949  -0.18027  -0.18025  -0.12555  -0.12552
 Alpha virt. eigenvalues --   -0.10893  -0.09478  -0.09476  -0.08338  -0.07772
 Alpha virt. eigenvalues --   -0.06545  -0.06114  -0.06114  -0.04765  -0.04717

 Mulliken atomic charges:
              1
     1  O   -1.031989
     2  O   -1.250968
     3  O   -1.032492
     4  O   -1.032467
     5  P    1.098334
     6  Ca   1.416563
     7  Ca   1.416437
     8  Ca   1.416582
 Sum of Mulliken charges=   1.00000

 Dipole moment (field-independent basis, Debye):
    X=     0.0012    Y=     0.0100    Z=    -8.2297  Tot=     8.2297
 Quadrupole moment (field-independent basis, Debye-Ang):
   XX=   -40.0363   YY=   -40.0443   ZZ=   -90.0176
   XY=     0.0082   XZ=     0.0022   YZ=     0.0301

 Normal termination of Gaussian 03 at Fri Jun 12 17:44:23 2015.
