 Gaussian 03, Revision E.01,
 Gaussian 03:  EM64T-G03RevE.01 11-Sep-2007

 ----------------------------------------------------
 # b3lyp/6-31+G(d,p) int=ultrafine pop=(ReadRadii,MK)
 ----------------------------------------------------

 -------------------------------------
 Ca3PO4_215.mol2c_plusQ.z51426.zip.xyz
 -------------------------------------
 Symbolic Z-matrix:
 Charge =  1 Multiplicity = 1

                         Standard orientation:
 ---------------------------------------------------------------------
 Center     Atomic     Atomic              Coordinates (Angstroms)
 Number     Number      Type              X           Y           Z
 ---------------------------------------------------------------------
    1          8             0        3.199001    0.052573   -0.008520
    2          8             0        3.123494   -2.587247   -0.004120
    3          8             0        0.941842   -1.110189    0.006390
    4          8             0       -3.042139    0.083696    0.015560
    5         15             0        2.454922   -1.275397   -0.002150
    6         20             0        2.478698    2.243293   -0.004100
    7         20             0       -0.893200    0.278909    0.013480
    8         20             0       -5.115569   -0.141186   -0.011490
 ---------------------------------------------------------------------

 SCF Done:  E(RB+HF-LYP) =  -2674.91188099     A.U. after   13 cycles

 The electronic state is 1-A.
 Alpha  occ. eigenvalues -- -145.54701-145.51479-145.47080 -77.32478 -19.26442
 Alpha  occ. eigenvalues --  -19.26434 -19.24364 -19.15582 -15.61543 -15.58463
 Alpha  occ. eigenvalues --  -15.53988 -12.74758 -12.74758 -12.74612 -12.71651
 Alpha  occ. eigenvalues --  -12.71641 -12.71546 -12.67248 -12.67193 -12.67023
 Alpha  occ. eigenvalues --   -6.77670  -4.94279  -4.93820  -4.93730  -1.98519
 Alpha  occ. eigenvalues --   -1.95518  -1.91252  -1.26081  -1.26077  -1.25232
 Alpha  occ. eigenvalues --   -1.22959  -1.22941  -1.22739  -1.19169  -1.19045
 Alpha  occ. eigenvalues --   -1.18450  -1.14994  -1.07890  -1.07201  -0.89674
 Alpha  occ. eigenvalues --   -0.64318  -0.56447  -0.53250  -0.52730  -0.47106
 Alpha  occ. eigenvalues --   -0.44486  -0.44407  -0.42262  -0.39355  -0.36325
 Alpha  occ. eigenvalues --   -0.33758  -0.33709  -0.26092
 Alpha virt. eigenvalues --   -0.23738  -0.17071  -0.14495  -0.14206  -0.14086
 Alpha virt. eigenvalues --   -0.13818  -0.12581  -0.11425  -0.09608  -0.09528
 Alpha virt. eigenvalues --   -0.09013  -0.07579  -0.07083  -0.06390  -0.05478

 Mulliken atomic charges:
              1
     1  O   -0.703942
     2  O   -0.623539
     3  O   -0.760170
     4  O   -1.182891
     5  P    1.484257
     6  Ca   0.456521
     7  Ca   1.031951
     8  Ca   1.297812
 Sum of Mulliken charges=   1.00000

 Dipole moment (field-independent basis, Debye):
    X=   -16.2993    Y=     6.4337    Z=    -0.0908  Tot=    17.5233
 Quadrupole moment (field-independent basis, Debye-Ang):
   XX=    40.0749   YY=   -79.3951   ZZ=   -77.0810
   XY=    31.3532   XZ=     0.5159   YZ=    -0.0288

 Normal termination of Gaussian 03 at Fri Jun 12 17:42:10 2015.
