 Gaussian 03, Revision E.01,
 Gaussian 03:  EM64T-G03RevE.01 11-Sep-2007

 ----------------------------------------------------
 # b3lyp/6-31+G(d,p) int=ultrafine pop=(ReadRadii,MK)
 ----------------------------------------------------

 ------------------------------------
 Ca3PO4_13.mol2c_plusQ.z51143.zip.xyz
 ------------------------------------
 Symbolic Z-matrix:
 Charge =  1 Multiplicity = 1

                         Standard orientation:
 ---------------------------------------------------------------------
 Center     Atomic     Atomic              Coordinates (Angstroms)
 Number     Number      Type              X           Y           Z
 ---------------------------------------------------------------------
    1          8             0        0.997770   -1.425831   -0.853538
    2          8             0        0.949798    0.410309    0.825272
    3          8             0       -0.949282    0.408068   -0.826738
    4          8             0       -0.995550   -1.425242    0.855042
    5         15             0        0.000749   -0.610622    0.000052
    6         20             0       -2.910431   -0.560594   -0.009268
    7         20             0        2.911699   -0.557639    0.009172
    8         20             0       -0.002923    2.389278    0.000042
 ---------------------------------------------------------------------

 SCF Done:  E(RB+HF-LYP) =  -2675.02388632     A.U. after   10 cycles

 The electronic state is 1-A.
 Alpha  occ. eigenvalues -- -145.53419-145.53393-145.51702 -77.32245 -19.24222
 Alpha  occ. eigenvalues --  -19.24189 -19.22111 -19.22105 -15.60304 -15.60279
 Alpha  occ. eigenvalues --  -15.58628 -12.73532 -12.73507 -12.73465 -12.73440
 Alpha  occ. eigenvalues --  -12.73418 -12.73392 -12.71844 -12.71785 -12.71736
 Alpha  occ. eigenvalues --   -6.76611  -4.93039  -4.92951  -4.92875  -1.97329
 Alpha  occ. eigenvalues --   -1.97304  -1.95710  -1.25064  -1.24923  -1.24898
 Alpha  occ. eigenvalues --   -1.24810  -1.24589  -1.24563  -1.23266  -1.23203
 Alpha  occ. eigenvalues --   -1.23022  -1.13448  -1.05312  -1.04505  -1.03717
 Alpha  occ. eigenvalues --   -0.63569  -0.55109  -0.54381  -0.53413  -0.48069
 Alpha  occ. eigenvalues --   -0.45546  -0.45055  -0.43193  -0.42765  -0.40355
 Alpha  occ. eigenvalues --   -0.39055  -0.37936  -0.25281
 Alpha virt. eigenvalues --   -0.22085  -0.20679  -0.15425  -0.13348  -0.13278
 Alpha virt. eigenvalues --   -0.12182  -0.11584  -0.11420  -0.10359  -0.08710
 Alpha virt. eigenvalues --   -0.07706  -0.07170  -0.06127  -0.05498  -0.05270

 Mulliken atomic charges:
              1
     1  O   -0.807410
     2  O   -0.997481
     3  O   -0.997126
     4  O   -0.807558
     5  P    1.779065
     6  Ca   0.904781
     7  Ca   0.903502
     8  Ca   1.022226
 Sum of Mulliken charges=   1.00000

 Dipole moment (field-independent basis, Debye):
    X=    -0.0359    Y=     3.1781    Z=    -0.0044  Tot=     3.1783
 Quadrupole moment (field-independent basis, Debye-Ang):
   XX=   -11.1519   YY=   -69.6614   ZZ=   -88.7198
   XY=     0.0493   XZ=     2.2591   YZ=    -0.0003

 Normal termination of Gaussian 03 at Fri Jun 12 17:37:55 2015.
