 Gaussian 03, Revision E.01,
 Gaussian 03:  EM64T-G03RevE.01 11-Sep-2007

 ----------------------------------------------------
 # b3lyp/6-31+G(d,p) int=ultrafine pop=(ReadRadii,MK)
 ----------------------------------------------------

 -------------------------------------
 Ca3PO4_146.mol2c_plusQ.z51150.zip.xyz
 -------------------------------------
 Symbolic Z-matrix:
 Charge =  1 Multiplicity = 1

                         Standard orientation:
 ---------------------------------------------------------------------
 Center     Atomic     Atomic              Coordinates (Angstroms)
 Number     Number      Type              X           Y           Z
 ---------------------------------------------------------------------
    1          8             0        2.422319   -1.126740    0.784668
    2          8             0        2.422289   -1.126740   -0.784612
    3          8             0        0.332299    1.115020   -0.000352
    4          8             0       -2.913761    0.070039    0.000248
    5         15             0       -2.841460   -1.514241   -0.000142
    6         20             0        2.582709    0.950470    0.000008
    7         20             0        0.300829   -1.301710    0.000068
    8         20             0       -1.657701    1.914289    0.000048
 ---------------------------------------------------------------------

 SCF Done:  E(RB+HF-LYP) =  -2674.84130028     A.U. after   11 cycles

 The electronic state is 1-A.
 Alpha  occ. eigenvalues -- -145.53750-145.48242-145.45100 -77.23746 -19.27802
 Alpha  occ. eigenvalues --  -19.20279 -19.20267 -19.17976 -15.60624 -15.55111
 Alpha  occ. eigenvalues --  -15.52076 -12.73879 -12.73798 -12.73698 -12.68319
 Alpha  occ. eigenvalues --  -12.68292 -12.68221 -12.65306 -12.65263 -12.65148
 Alpha  occ. eigenvalues --   -6.70035  -4.86786  -4.86241  -4.85342  -1.97813
 Alpha  occ. eigenvalues --   -1.92412  -1.89488  -1.25640  -1.25398  -1.24734
 Alpha  occ. eigenvalues --   -1.20719  -1.20009  -1.19611  -1.17319  -1.17013
 Alpha  occ. eigenvalues --   -1.16951  -1.09356  -1.02814  -0.92603  -0.84077
 Alpha  occ. eigenvalues --   -0.66166  -0.49837  -0.48504  -0.47692  -0.43732
 Alpha  occ. eigenvalues --   -0.42163  -0.41453  -0.38329  -0.37463  -0.36562
 Alpha  occ. eigenvalues --   -0.30836  -0.29210  -0.28529
 Alpha virt. eigenvalues --   -0.23176  -0.22008  -0.18280  -0.13765  -0.13465
 Alpha virt. eigenvalues --   -0.12730  -0.11472  -0.11096  -0.08955  -0.08424
 Alpha virt. eigenvalues --   -0.07869  -0.07311  -0.06674  -0.06027  -0.05701

 Mulliken atomic charges:
              1
     1  O   -0.654758
     2  O   -0.654921
     3  O   -1.335306
     4  O   -0.625474
     5  P    0.075301
     6  Ca   1.448330
     7  Ca   1.231825
     8  Ca   1.515004
 Sum of Mulliken charges=   1.00000

 Dipole moment (field-independent basis, Debye):
    X=    -1.9956    Y=    13.1517    Z=     0.0027  Tot=    13.3022
 Quadrupole moment (field-independent basis, Debye-Ang):
   XX=   -61.2339   YY=   -40.8426   ZZ=   -72.5752
   XY=     7.5962   XZ=     0.0029   YZ=     0.0010

 Normal termination of Gaussian 03 at Fri Jun 12 17:38:08 2015.
