 Gaussian 03, Revision E.01,
 Gaussian 03:  EM64T-G03RevE.01 11-Sep-2007

 ----------------------------------------------------
 # b3lyp/6-31+G(d,p) int=ultrafine pop=(ReadRadii,MK)
 ----------------------------------------------------

 -------------------------------------
 Ca3PO4_137.mol2c_plusQ.z51140.zip.xyz
 -------------------------------------
 Symbolic Z-matrix:
 Charge =  1 Multiplicity = 1

                         Standard orientation:
 ---------------------------------------------------------------------
 Center     Atomic     Atomic              Coordinates (Angstroms)
 Number     Number      Type              X           Y           Z
 ---------------------------------------------------------------------
    1          8             0        0.761358    1.269867    0.922440
    2          8             0        0.718489   -1.294538    0.922520
    3          8             0       -1.480811    0.024761    0.922090
    4          8             0        0.000719   -0.000037   -1.711930
    5         15             0       -0.000331    0.000060    1.718030
    6         20             0       -1.000938   -1.668577   -0.570380
    7         20             0        1.945907   -0.032536   -0.569760
    8         20             0       -0.944622    1.701047   -0.570430
 ---------------------------------------------------------------------

 SCF Done:  E(RB+HF-LYP) =  -2675.07103997     A.U. after    8 cycles

 The electronic state is 1-A.
 Alpha  occ. eigenvalues -- -145.49641-145.49636-145.49635 -77.25054 -19.21225
 Alpha  occ. eigenvalues --  -19.21225 -19.21223 -19.15947 -15.56475 -15.56471
 Alpha  occ. eigenvalues --  -15.56470 -12.69672 -12.69670 -12.69670 -12.69649
 Alpha  occ. eigenvalues --  -12.69648 -12.69646 -12.69602 -12.69601 -12.69600
 Alpha  occ. eigenvalues --   -6.70084  -4.86433  -4.86433  -4.85896  -1.93824
 Alpha  occ. eigenvalues --   -1.93739  -1.93739  -1.22378  -1.21696  -1.21695
 Alpha  occ. eigenvalues --   -1.21307  -1.21139  -1.21065  -1.21065  -1.20643
 Alpha  occ. eigenvalues --   -1.20642  -1.06762  -1.00358  -1.00356  -0.90944
 Alpha  occ. eigenvalues --   -0.62643  -0.50529  -0.50529  -0.47963  -0.43359
 Alpha  occ. eigenvalues --   -0.43359  -0.38345  -0.38344  -0.38179  -0.36138
 Alpha  occ. eigenvalues --   -0.36137  -0.34593  -0.30859
 Alpha virt. eigenvalues --   -0.19950  -0.18027  -0.18026  -0.12555  -0.12554
 Alpha virt. eigenvalues --   -0.10894  -0.09479  -0.09477  -0.08339  -0.07772
 Alpha virt. eigenvalues --   -0.06546  -0.06114  -0.06114  -0.04765  -0.04716

 Mulliken atomic charges:
              1
     1  O   -1.032199
     2  O   -1.032196
     3  O   -1.032272
     4  O   -1.251196
     5  P    1.098044
     6  Ca   1.416568
     7  Ca   1.416692
     8  Ca   1.416560
 Sum of Mulliken charges=   1.00000

 Dipole moment (field-independent basis, Debye):
    X=     0.0023    Y=    -0.0005    Z=    -8.2289  Tot=     8.2289
 Quadrupole moment (field-independent basis, Debye-Ang):
   XX=   -40.0216   YY=   -40.0365   ZZ=   -90.0162
   XY=    -0.0003   XZ=     0.0161   YZ=    -0.0008

 Normal termination of Gaussian 03 at Fri Jun 12 17:37:42 2015.
