 Gaussian 03, Revision E.01,
 Gaussian 03:  EM64T-G03RevE.01 11-Sep-2007

 ----------------------------------------------------
 # b3lyp/6-31+G(d,p) int=ultrafine pop=(ReadRadii,MK)
 ----------------------------------------------------

 ------------------------------------
 Ca3PO4_54.mol2c_plusQ.z51468.zip.xyz
 ------------------------------------
 Symbolic Z-matrix:
 Charge =  1 Multiplicity = 1

                         Standard orientation:
 ---------------------------------------------------------------------
 Center     Atomic     Atomic              Coordinates (Angstroms)
 Number     Number      Type              X           Y           Z
 ---------------------------------------------------------------------
    1          8             0       -1.565370    0.977609    0.000879
    2          8             0        1.122370   -0.450371    0.778979
    3          8             0        1.122010   -0.449971   -0.778741
    4          8             0       -3.070180   -0.980120   -0.001301
    5         15             0       -3.076830    0.558460    0.000219
    6         20             0        0.661891    1.788259   -0.000241
    7         20             0        3.380380   -0.365222   -0.000111
    8         20             0       -0.778180   -1.480741    0.000259
 ---------------------------------------------------------------------

 SCF Done:  E(RB+HF-LYP) =  -2674.91831217     A.U. after   12 cycles

 The electronic state is 1-A.
 Alpha  occ. eigenvalues -- -145.53436-145.51421-145.50729 -77.31502 -19.29652
 Alpha  occ. eigenvalues --  -19.29201 -19.29194 -19.28812 -15.60290 -15.58310
 Alpha  occ. eigenvalues --  -15.57682 -12.73520 -12.73517 -12.73363 -12.71517
 Alpha  occ. eigenvalues --  -12.71473 -12.71437 -12.70877 -12.70850 -12.70784
 Alpha  occ. eigenvalues --   -6.77094  -4.93525  -4.93302  -4.92878  -1.97444
 Alpha  occ. eigenvalues --   -1.95436  -1.94745  -1.25578  -1.25270  -1.25103
 Alpha  occ. eigenvalues --   -1.23250  -1.22953  -1.22834  -1.22135  -1.22102
 Alpha  occ. eigenvalues --   -1.22079  -1.15587  -1.12511  -1.09595  -0.92878
 Alpha  occ. eigenvalues --   -0.68772  -0.57749  -0.55039  -0.54192  -0.52603
 Alpha  occ. eigenvalues --   -0.52055  -0.51158  -0.46639  -0.45186  -0.42509
 Alpha  occ. eigenvalues --   -0.40161  -0.38625  -0.25349
 Alpha virt. eigenvalues --   -0.21378  -0.19576  -0.19322  -0.16488  -0.13938
 Alpha virt. eigenvalues --   -0.12055  -0.12044  -0.11081  -0.10763  -0.10641
 Alpha virt. eigenvalues --   -0.09525  -0.07754  -0.07581  -0.07279  -0.06563

 Mulliken atomic charges:
              1
     1  O   -0.728614
     2  O   -0.565786
     3  O   -0.565699
     4  O   -0.641525
     5  P    0.645484
     6  Ca   0.816842
     7  Ca   0.678650
     8  Ca   1.360648
 Sum of Mulliken charges=   1.00000

 Dipole moment (field-independent basis, Debye):
    X=     1.6460    Y=    -2.6737    Z=     0.0017  Tot=     3.1397
 Quadrupole moment (field-independent basis, Debye-Ang):
   XX=   -66.1648   YY=   -58.6671   ZZ=   -81.1582
   XY=    -6.3421   XZ=    -0.0093   YZ=    -0.0105

 Normal termination of Gaussian 03 at Fri Jun 12 17:44:40 2015.
