 Gaussian 03, Revision E.01,
 Gaussian 03:  EM64T-G03RevE.01 11-Sep-2007

 ----------------------------------------------------
 # b3lyp/6-31+G(d,p) int=ultrafine pop=(ReadRadii,MK)
 ----------------------------------------------------

 ------------------------------------
 Ca3PO4_45.mol2c_plusQ.z51458.zip.xyz
 ------------------------------------
 Symbolic Z-matrix:
 Charge =  1 Multiplicity = 1

                         Standard orientation:
 ---------------------------------------------------------------------
 Center     Atomic     Atomic              Coordinates (Angstroms)
 Number     Number      Type              X           Y           Z
 ---------------------------------------------------------------------
    1          8             0       -0.592271   -1.356883    0.922379
    2          8             0        1.472153    0.165127    0.922369
    3          8             0       -0.001110    0.000154   -1.712281
    4          8             0       -0.878156    1.191730    0.922829
    5         15             0        0.000729   -0.000033    1.718219
    6         20             0       -1.934200   -0.216778   -0.569361
    7         20             0        0.778909    1.782840   -0.570641
    8         20             0        1.154498   -1.566089   -0.570781
 ---------------------------------------------------------------------

 SCF Done:  E(RB+HF-LYP) =  -2675.07103722     A.U. after    8 cycles

 The electronic state is 1-A.
 Alpha  occ. eigenvalues -- -145.49643-145.49638-145.49636 -77.25056 -19.21242
 Alpha  occ. eigenvalues --  -19.21221 -19.21209 -19.15943 -15.56477 -15.56473
 Alpha  occ. eigenvalues --  -15.56471 -12.69674 -12.69671 -12.69671 -12.69652
 Alpha  occ. eigenvalues --  -12.69649 -12.69647 -12.69604 -12.69602 -12.69601
 Alpha  occ. eigenvalues --   -6.70086  -4.86435  -4.86435  -4.85898  -1.93825
 Alpha  occ. eigenvalues --   -1.93741  -1.93739  -1.22378  -1.21697  -1.21696
 Alpha  occ. eigenvalues --   -1.21308  -1.21141  -1.21066  -1.21065  -1.20644
 Alpha  occ. eigenvalues --   -1.20643  -1.06761  -1.00361  -1.00351  -0.90940
 Alpha  occ. eigenvalues --   -0.62642  -0.50530  -0.50527  -0.47962  -0.43358
 Alpha  occ. eigenvalues --   -0.43358  -0.38346  -0.38339  -0.38177  -0.36137
 Alpha  occ. eigenvalues --   -0.36134  -0.34592  -0.30859
 Alpha virt. eigenvalues --   -0.19950  -0.18027  -0.18026  -0.12556  -0.12554
 Alpha virt. eigenvalues --   -0.10894  -0.09478  -0.09477  -0.08339  -0.07772
 Alpha virt. eigenvalues --   -0.06545  -0.06114  -0.06113  -0.04765  -0.04715

 Mulliken atomic charges:
              1
     1  O   -1.032152
     2  O   -1.032406
     3  O   -1.251024
     4  O   -1.032221
     5  P    1.098045
     6  Ca   1.416678
     7  Ca   1.416514
     8  Ca   1.416566
 Sum of Mulliken charges=   1.00000

 Dipole moment (field-independent basis, Debye):
    X=    -0.0067    Y=    -0.0014    Z=    -8.2306  Tot=     8.2306
 Quadrupole moment (field-independent basis, Debye-Ang):
   XX=   -40.0262   YY=   -40.0412   ZZ=   -90.0227
   XY=    -0.0021   XZ=    -0.0316   YZ=     0.0003

 Normal termination of Gaussian 03 at Fri Jun 12 17:43:38 2015.
