 Gaussian 03, Revision E.01,
 Gaussian 03:  EM64T-G03RevE.01 11-Sep-2007

 ----------------------------------------------------
 # b3lyp/6-31+G(d,p) int=ultrafine pop=(ReadRadii,MK)
 ----------------------------------------------------

 ------------------------------------
 Ca3PO4_64.mol2c_plusQ.z51479.zip.xyz
 ------------------------------------
 Symbolic Z-matrix:
 Charge =  1 Multiplicity = 1

                         Standard orientation:
 ---------------------------------------------------------------------
 Center     Atomic     Atomic              Coordinates (Angstroms)
 Number     Number      Type              X           Y           Z
 ---------------------------------------------------------------------
    1          8             0       -0.145789   -1.474019    0.921030
    2          8             0       -1.203073    0.862527    0.922500
    3          8             0        1.348658    0.609477    0.923240
    4          8             0       -0.000294    0.000913   -1.711800
    5         15             0        0.000161   -0.001430    1.717710
    6         20             0       -1.773085   -0.801402   -0.570280
    7         20             0        0.192093    1.936743   -0.569080
    8         20             0        1.581071   -1.133828   -0.570910
 ---------------------------------------------------------------------

 SCF Done:  E(RB+HF-LYP) =  -2675.07103709     A.U. after    8 cycles

 The electronic state is 1-A.
 Alpha  occ. eigenvalues -- -145.49641-145.49636-145.49623 -77.25048 -19.21268
 Alpha  occ. eigenvalues --  -19.21216 -19.21178 -19.15934 -15.56475 -15.56472
 Alpha  occ. eigenvalues --  -15.56459 -12.69672 -12.69671 -12.69657 -12.69650
 Alpha  occ. eigenvalues --  -12.69648 -12.69635 -12.69602 -12.69601 -12.69588
 Alpha  occ. eigenvalues --   -6.70079  -4.86428  -4.86428  -4.85891  -1.93821
 Alpha  occ. eigenvalues --   -1.93740  -1.93731  -1.22376  -1.21696  -1.21690
 Alpha  occ. eigenvalues --   -1.21304  -1.21136  -1.21064  -1.21059  -1.20643
 Alpha  occ. eigenvalues --   -1.20635  -1.06769  -1.00380  -1.00342  -0.90933
 Alpha  occ. eigenvalues --   -0.62640  -0.50539  -0.50527  -0.47967  -0.43364
 Alpha  occ. eigenvalues --   -0.43359  -0.38355  -0.38334  -0.38179  -0.36132
 Alpha  occ. eigenvalues --   -0.36127  -0.34584  -0.30850
 Alpha virt. eigenvalues --   -0.19948  -0.18028  -0.18023  -0.12557  -0.12550
 Alpha virt. eigenvalues --   -0.10893  -0.09478  -0.09476  -0.08338  -0.07771
 Alpha virt. eigenvalues --   -0.06545  -0.06113  -0.06113  -0.04764  -0.04713

 Mulliken atomic charges:
              1
     1  O   -1.032085
     2  O   -1.031949
     3  O   -1.032567
     4  O   -1.250882
     5  P    1.098081
     6  Ca   1.416453
     7  Ca   1.416533
     8  Ca   1.416416
 Sum of Mulliken charges=   1.00000

 Dipole moment (field-independent basis, Debye):
    X=     0.0015    Y=     0.0083    Z=    -8.2279  Tot=     8.2279
 Quadrupole moment (field-independent basis, Debye-Ang):
   XX=   -40.0252   YY=   -40.0379   ZZ=   -90.0246
   XY=     0.0058   XZ=    -0.0111   YZ=     0.0225

 Normal termination of Gaussian 03 at Fri Jun 12 17:44:33 2015.
