 Gaussian 03, Revision E.01,
 Gaussian 03:  EM64T-G03RevE.01 11-Sep-2007

 ----------------------------------------------------
 # b3lyp/6-31+G(d,p) int=ultrafine pop=(ReadRadii,MK)
 ----------------------------------------------------

 ------------------------------------
 Ca3PO4_150.mol2_plusQ.z51155.zip.xyz
 ------------------------------------
 Symbolic Z-matrix:
 Charge =  1 Multiplicity = 1

                         Standard orientation:
 ---------------------------------------------------------------------
 Center     Atomic     Atomic              Coordinates (Angstroms)
 Number     Number      Type              X           Y           Z
 ---------------------------------------------------------------------
    1          8             0       -1.217912    0.842054    0.922769
    2          8             0       -0.120061   -1.475705    0.922669
    3          8             0        1.338531    0.633992    0.922069
    4          8             0       -0.000329   -0.000209   -1.711991
    5         15             0        0.000467    0.000244    1.718279
    6         20             0       -1.758740   -0.833000   -0.569931
    7         20             0        1.600529   -1.106568   -0.570441
    8         20             0        0.157769    1.939331   -0.570541
 ---------------------------------------------------------------------

 SCF Done:  E(RB+HF-LYP) =  -2675.07103735     A.U. after    8 cycles

 The electronic state is 1-A.
 Alpha  occ. eigenvalues -- -145.49642-145.49636-145.49635 -77.25056 -19.21227
 Alpha  occ. eigenvalues --  -19.21223 -19.21217 -19.15944 -15.56475 -15.56471
 Alpha  occ. eigenvalues --  -15.56471 -12.69672 -12.69671 -12.69670 -12.69649
 Alpha  occ. eigenvalues --  -12.69649 -12.69647 -12.69602 -12.69601 -12.69600
 Alpha  occ. eigenvalues --   -6.70086  -4.86434  -4.86434  -4.85898  -1.93824
 Alpha  occ. eigenvalues --   -1.93739  -1.93739  -1.22377  -1.21696  -1.21695
 Alpha  occ. eigenvalues --   -1.21307  -1.21140  -1.21065  -1.21064  -1.20643
 Alpha  occ. eigenvalues --   -1.20642  -1.06757  -1.00355  -1.00351  -0.90942
 Alpha  occ. eigenvalues --   -0.62641  -0.50526  -0.50524  -0.47959  -0.43356
 Alpha  occ. eigenvalues --   -0.43355  -0.38342  -0.38339  -0.38175  -0.36137
 Alpha  occ. eigenvalues --   -0.36137  -0.34593  -0.30860
 Alpha virt. eigenvalues --   -0.19950  -0.18027  -0.18027  -0.12555  -0.12554
 Alpha virt. eigenvalues --   -0.10894  -0.09478  -0.09477  -0.08338  -0.07772
 Alpha virt. eigenvalues --   -0.06545  -0.06114  -0.06114  -0.04765  -0.04715

 Mulliken atomic charges:
              1
     1  O   -1.032286
     2  O   -1.032233
     3  O   -1.032266
     4  O   -1.251097
     5  P    1.098076
     6  Ca   1.416634
     7  Ca   1.416577
     8  Ca   1.416595
 Sum of Mulliken charges=   1.00000

 Dipole moment (field-independent basis, Debye):
    X=    -0.0025    Y=    -0.0018    Z=    -8.2324  Tot=     8.2324
 Quadrupole moment (field-independent basis, Debye-Ang):
   XX=   -40.0337   YY=   -40.0335   ZZ=   -90.0146
   XY=    -0.0015   XZ=    -0.0076   YZ=    -0.0062

 Normal termination of Gaussian 03 at Fri Jun 12 17:38:24 2015.
