 Gaussian 03, Revision E.01,
 Gaussian 03:  EM64T-G03RevE.01 11-Sep-2007

 ----------------------------------------------------
 # b3lyp/6-31+G(d,p) int=ultrafine pop=(ReadRadii,MK)
 ----------------------------------------------------

 -------------------------------------
 Ca3PO4_140.mol2c_plusQ.z51144.zip.xyz
 -------------------------------------
 Symbolic Z-matrix:
 Charge =  1 Multiplicity = 1

                         Standard orientation:
 ---------------------------------------------------------------------
 Center     Atomic     Atomic              Coordinates (Angstroms)
 Number     Number      Type              X           Y           Z
 ---------------------------------------------------------------------
    1          8             0       -2.049351   -1.300222   -0.000048
    2          8             0        1.750727    1.904136    0.000642
    3          8             0       -2.088809    1.250038   -0.000148
    4          8             0        1.809615   -1.865815   -0.000388
    5         15             0       -2.935860   -0.038554    0.000162
    6         20             0       -0.236827    2.591893   -0.000208
    7         20             0        2.833291    0.035546   -0.000008
    8         20             0       -0.163442   -2.593778    0.000072
 ---------------------------------------------------------------------

 SCF Done:  E(RB+HF-LYP) =  -2674.99692685     A.U. after    7 cycles

 The electronic state is 1-A.
 Alpha  occ. eigenvalues -- -145.49220-145.49194-145.42872 -77.29680 -19.27553
 Alpha  occ. eigenvalues --  -19.27500 -19.11870 -19.11796 -15.56126 -15.56100
 Alpha  occ. eigenvalues --  -15.49904 -12.69379 -12.69353 -12.69335 -12.69310
 Alpha  occ. eigenvalues --  -12.69159 -12.69133 -12.63160 -12.63108 -12.62900
 Alpha  occ. eigenvalues --   -6.75168  -4.91614  -4.91391  -4.90948  -1.93367
 Alpha  occ. eigenvalues --   -1.93343  -1.87394  -1.21232  -1.21209  -1.21128
 Alpha  occ. eigenvalues --   -1.21055  -1.20287  -1.20237  -1.15435  -1.15127
 Alpha  occ. eigenvalues --   -1.14224  -1.13365  -1.08164  -0.86236  -0.85660
 Alpha  occ. eigenvalues --   -0.67430  -0.56991  -0.52244  -0.52200  -0.45473
 Alpha  occ. eigenvalues --   -0.43645  -0.40115  -0.33052  -0.31443  -0.30727
 Alpha  occ. eigenvalues --   -0.30324  -0.30159  -0.29706
 Alpha virt. eigenvalues --   -0.19443  -0.18402  -0.17738  -0.14274  -0.11280
 Alpha virt. eigenvalues --   -0.10199  -0.10178  -0.08906  -0.08323  -0.07852
 Alpha virt. eigenvalues --   -0.07521  -0.06906  -0.06052  -0.05561  -0.04928

 Mulliken atomic charges:
              1
     1  O   -0.700866
     2  O   -1.244963
     3  O   -0.702066
     4  O   -1.242732
     5  P    0.646276
     6  Ca   1.443687
     7  Ca   1.358708
     8  Ca   1.441956
 Sum of Mulliken charges=   1.00000

 Dipole moment (field-independent basis, Debye):
    X=    -0.8682    Y=     0.0394    Z=    -0.0017  Tot=     0.8691
 Quadrupole moment (field-independent basis, Debye-Ang):
   XX=   -57.2028   YY=   -26.5468   ZZ=   -69.0845
   XY=    -0.2953   XZ=    -0.0031   YZ=    -0.0173

 Normal termination of Gaussian 03 at Fri Jun 12 17:37:26 2015.
