 Gaussian 03, Revision E.01,
 Gaussian 03:  EM64T-G03RevE.01 11-Sep-2007

 ----------------------------------------------------
 # b3lyp/6-31+G(d,p) int=ultrafine pop=(ReadRadii,MK)
 ----------------------------------------------------

 -------------------------------------
 Ca3PO4_155.mol2c_plusQ.z51160.zip.xyz
 -------------------------------------
 Symbolic Z-matrix:
 Charge =  1 Multiplicity = 1

                         Standard orientation:
 ---------------------------------------------------------------------
 Center     Atomic     Atomic              Coordinates (Angstroms)
 Number     Number      Type              X           Y           Z
 ---------------------------------------------------------------------
    1          8             0        2.776360   -0.521420    0.419900
    2          8             0        1.655990   -0.268350    1.373430
    3          8             0        2.299130   -0.071100   -0.919310
    4          8             0       -1.332270   -0.816342   -0.240200
    5         15             0       -1.245591    0.880718   -0.928480
    6         20             0       -3.319560   -0.047523    0.486380
    7         20             0        0.752781   -1.655971   -0.249710
    8         20             0        1.341289    1.713840    0.206160
 ---------------------------------------------------------------------

 SCF Done:  E(RB+HF-LYP) =  -2674.73729174     A.U. after   10 cycles

 The electronic state is 1-A.
 Alpha  occ. eigenvalues -- -145.53544-145.50102-145.49798 -77.15706 -19.34825
 Alpha  occ. eigenvalues --  -19.25823 -19.25822 -19.21424 -15.60455 -15.56989
 Alpha  occ. eigenvalues --  -15.56622 -12.73670 -12.73627 -12.73555 -12.70189
 Alpha  occ. eigenvalues --  -12.70165 -12.70110 -12.69851 -12.69822 -12.69722
 Alpha  occ. eigenvalues --   -6.62293  -4.78824  -4.78280  -4.78011  -1.97494
 Alpha  occ. eigenvalues --   -1.94171  -1.93827  -1.25035  -1.24760  -1.24700
 Alpha  occ. eigenvalues --   -1.24654  -1.21639  -1.21531  -1.21397  -1.21287
 Alpha  occ. eigenvalues --   -1.21143  -1.17320  -1.01703  -0.99561  -0.86191
 Alpha  occ. eigenvalues --   -0.61555  -0.55741  -0.53570  -0.53247  -0.44405
 Alpha  occ. eigenvalues --   -0.42535  -0.41703  -0.41391  -0.39673  -0.37763
 Alpha  occ. eigenvalues --   -0.33662  -0.29160  -0.26234
 Alpha virt. eigenvalues --   -0.21868  -0.17839  -0.17486  -0.13762  -0.13415
 Alpha virt. eigenvalues --   -0.12060  -0.11143  -0.10378  -0.09881  -0.09437
 Alpha virt. eigenvalues --   -0.07964  -0.07221  -0.06559  -0.06109  -0.05813

 Mulliken atomic charges:
              1
     1  O   -0.072954
     2  O   -0.608169
     3  O   -0.618393
     4  O   -0.856668
     5  P   -0.709262
     6  Ca   1.173846
     7  Ca   1.482288
     8  Ca   1.209312
 Sum of Mulliken charges=   1.00000

 Dipole moment (field-independent basis, Debye):
    X=    -7.1777    Y=    -1.8101    Z=     3.3353  Tot=     8.1191
 Quadrupole moment (field-independent basis, Debye-Ang):
   XX=   -37.8468   YY=   -41.3996   ZZ=   -84.9446
   XY=    14.0286   XZ=   -13.0699   YZ=     6.8944

 Normal termination of Gaussian 03 at Fri Jun 12 17:38:53 2015.
