 Gaussian 03, Revision E.01,
 Gaussian 03:  EM64T-G03RevE.01 11-Sep-2007

 ----------------------------------------------------
 # b3lyp/6-31+G(d,p) int=ultrafine pop=(ReadRadii,MK)
 ----------------------------------------------------

 --------------------------------------
 Ca3PO4_194.mol2c_plusQc.z51691.zip.xyz
 --------------------------------------
 Symbolic Z-matrix:
 Charge =  1 Multiplicity = 1

                         Standard orientation:
 ---------------------------------------------------------------------
 Center     Atomic     Atomic              Coordinates (Angstroms)
 Number     Number      Type              X           Y           Z
 ---------------------------------------------------------------------
    1          8             0        2.949270    0.670364   -0.002630
    2          8             0       -2.840799   -1.414430   -0.003240
    3          8             0        1.667411   -1.501257   -0.000710
    4          8             0       -0.830640    0.944551    0.004110
    5         15             0        3.073511   -0.877326   -0.002800
    6         20             0       -3.085220    0.691960   -0.002850
    7         20             0       -0.673209   -1.459229    0.004270
    8         20             0        1.075199    1.945572    0.001670
 ---------------------------------------------------------------------

 SCF Done:  E(RB+HF-LYP) =  -2675.00579491     A.U. after   10 cycles

 The electronic state is 1-A.
 Alpha  occ. eigenvalues -- -145.53274-145.47073-145.44487 -77.29406 -19.27576
 Alpha  occ. eigenvalues --  -19.27198 -19.17717 -19.10351 -15.60167 -15.53972
 Alpha  occ. eigenvalues --  -15.51445 -12.73423 -12.73371 -12.73210 -12.67212
 Alpha  occ. eigenvalues --  -12.67130 -12.67051 -12.64721 -12.64630 -12.64476
 Alpha  occ. eigenvalues --   -6.74955  -4.91395  -4.91171  -4.90735  -1.97366
 Alpha  occ. eigenvalues --   -1.91268  -1.88895  -1.25220  -1.25068  -1.24237
 Alpha  occ. eigenvalues --   -1.19135  -1.18808  -1.18227  -1.17000  -1.16389
 Alpha  occ. eigenvalues --   -1.16276  -1.13243  -1.07846  -0.92329  -0.84315
 Alpha  occ. eigenvalues --   -0.66979  -0.56443  -0.52399  -0.52184  -0.45141
 Alpha  occ. eigenvalues --   -0.43249  -0.40555  -0.38451  -0.37477  -0.36316
 Alpha  occ. eigenvalues --   -0.29849  -0.28438  -0.28141
 Alpha virt. eigenvalues --   -0.21377  -0.19379  -0.18289  -0.14055  -0.13459
 Alpha virt. eigenvalues --   -0.11736  -0.10631  -0.10446  -0.08686  -0.08514
 Alpha virt. eigenvalues --   -0.07774  -0.07165  -0.06436  -0.06130  -0.05562

 Mulliken atomic charges:
              1
     1  O   -0.720186
     2  O   -1.119743
     3  O   -0.683368
     4  O   -1.345715
     5  P    0.671117
     6  Ca   1.326280
     7  Ca   1.347357
     8  Ca   1.524258
 Sum of Mulliken charges=   1.00000

 Dipole moment (field-independent basis, Debye):
    X=    -0.3880    Y=    11.4261    Z=     0.0197  Tot=    11.4327
 Quadrupole moment (field-independent basis, Debye-Ang):
   XX=   -59.0330   YY=   -46.9042   ZZ=   -69.1140
   XY=   -17.5232   XZ=     0.0304   YZ=    -0.0864

 Normal termination of Gaussian 03 at Fri Jun 12 17:40:47 2015.
