 Gaussian 03, Revision E.01,
 Gaussian 03:  EM64T-G03RevE.01 11-Sep-2007

 ----------------------------------------------------
 # b3lyp/6-31+G(d,p) int=ultrafine pop=(ReadRadii,MK)
 ----------------------------------------------------

 -------------------------------------
 Ca3PO4_165.mol2c_plusQ.z51171.zip.xyz
 -------------------------------------
 Symbolic Z-matrix:
 Charge =  1 Multiplicity = 1

                         Standard orientation:
 ---------------------------------------------------------------------
 Center     Atomic     Atomic              Coordinates (Angstroms)
 Number     Number      Type              X           Y           Z
 ---------------------------------------------------------------------
    1          8             0       -1.937659   -1.512519    0.042739
    2          8             0        2.870692    0.986219   -0.472421
    3          8             0       -1.270168    0.911261    0.426189
    4          8             0        0.583441   -0.826850    0.338499
    5         15             0       -0.900569   -0.720739    0.972319
    6         20             0       -3.058988    0.209912   -0.717471
    7         20             0        0.942292    1.633190    0.246799
    8         20             0        2.693601   -1.125791   -0.392571
 ---------------------------------------------------------------------

 SCF Done:  E(RB+HF-LYP) =  -2674.99497607     A.U. after    9 cycles

 The electronic state is 1-A.
 Alpha  occ. eigenvalues -- -145.54315-145.48567-145.45757 -77.24722 -19.21996
 Alpha  occ. eigenvalues --  -19.21590 -19.20160 -19.10636 -15.61175 -15.55410
 Alpha  occ. eigenvalues --  -15.52726 -12.74406 -12.74312 -12.74305 -12.68651
 Alpha  occ. eigenvalues --  -12.68572 -12.68502 -12.65986 -12.65936 -12.65739
 Alpha  occ. eigenvalues --   -6.69761  -4.86170  -4.86090  -4.85590  -1.98286
 Alpha  occ. eigenvalues --   -1.92617  -1.90131  -1.25954  -1.25787  -1.25427
 Alpha  occ. eigenvalues --   -1.20406  -1.20266  -1.19547  -1.18139  -1.17940
 Alpha  occ. eigenvalues --   -1.16948  -1.07024  -1.01223  -0.99689  -0.84841
 Alpha  occ. eigenvalues --   -0.62360  -0.51023  -0.50164  -0.47528  -0.44197
 Alpha  occ. eigenvalues --   -0.41665  -0.38714  -0.37898  -0.37643  -0.30573
 Alpha  occ. eigenvalues --   -0.30452  -0.29022  -0.28542
 Alpha virt. eigenvalues --   -0.22180  -0.18250  -0.15632  -0.13736  -0.12731
 Alpha virt. eigenvalues --   -0.10817  -0.09951  -0.09059  -0.08486  -0.08243
 Alpha virt. eigenvalues --   -0.07266  -0.06104  -0.05853  -0.05240  -0.05145

 Mulliken atomic charges:
              1
     1  O   -0.860104
     2  O   -1.138180
     3  O   -1.061507
     4  O   -1.010155
     5  P    0.890936
     6  Ca   1.405815
     7  Ca   1.396545
     8  Ca   1.376649
 Sum of Mulliken charges=   1.00000

 Dipole moment (field-independent basis, Debye):
    X=    -5.9275    Y=     1.2134    Z=    -4.9135  Tot=     7.7943
 Quadrupole moment (field-independent basis, Debye-Ang):
   XX=   -17.9994   YY=   -59.9074   ZZ=   -70.0748
   XY=   -36.2451   XZ=    19.5699   YZ=     7.3091

 Normal termination of Gaussian 03 at Fri Jun 12 17:39:08 2015.
