 Gaussian 03, Revision E.01,
 Gaussian 03:  EM64T-G03RevE.01 11-Sep-2007

 ----------------------------------------------------
 # b3lyp/6-31+G(d,p) int=ultrafine pop=(ReadRadii,MK)
 ----------------------------------------------------

 ------------------------------------
 Ca3PO4_65.mol2c_plusQ.z51480.zip.xyz
 ------------------------------------
 Symbolic Z-matrix:
 Charge =  1 Multiplicity = 1

                         Standard orientation:
 ---------------------------------------------------------------------
 Center     Atomic     Atomic              Coordinates (Angstroms)
 Number     Number      Type              X           Y           Z
 ---------------------------------------------------------------------
    1          8             0        1.936668   -1.512293    0.043737
    2          8             0        1.269952    0.912009    0.425537
    3          8             0       -0.583801   -0.826278    0.343097
    4          8             0       -2.869008    0.985286   -0.476053
    5         15             0        0.901149   -0.719351    0.974347
    6         20             0        3.057311    0.209176   -0.719703
    7         20             0       -2.691861   -1.126655   -0.393553
    8         20             0       -0.942837    1.633502    0.247967
 ---------------------------------------------------------------------

 SCF Done:  E(RB+HF-LYP) =  -2674.99497635     A.U. after    9 cycles

 The electronic state is 1-A.
 Alpha  occ. eigenvalues -- -145.54314-145.48570-145.45758 -77.24720 -19.21994
 Alpha  occ. eigenvalues --  -19.21589 -19.20157 -19.10637 -15.61175 -15.55412
 Alpha  occ. eigenvalues --  -15.52727 -12.74406 -12.74312 -12.74305 -12.68653
 Alpha  occ. eigenvalues --  -12.68574 -12.68504 -12.65987 -12.65937 -12.65740
 Alpha  occ. eigenvalues --   -6.69759  -4.86168  -4.86089  -4.85588  -1.98285
 Alpha  occ. eigenvalues --   -1.92619  -1.90131  -1.25954  -1.25786  -1.25426
 Alpha  occ. eigenvalues --   -1.20408  -1.20268  -1.19549  -1.18139  -1.17940
 Alpha  occ. eigenvalues --   -1.16948  -1.07022  -1.01220  -0.99685  -0.84842
 Alpha  occ. eigenvalues --   -0.62359  -0.51021  -0.50162  -0.47525  -0.44194
 Alpha  occ. eigenvalues --   -0.41665  -0.38710  -0.37895  -0.37639  -0.30574
 Alpha  occ. eigenvalues --   -0.30454  -0.29023  -0.28542
 Alpha virt. eigenvalues --   -0.22180  -0.18252  -0.15630  -0.13737  -0.12732
 Alpha virt. eigenvalues --   -0.10819  -0.09950  -0.09061  -0.08488  -0.08237
 Alpha virt. eigenvalues --   -0.07265  -0.06105  -0.05853  -0.05240  -0.05145

 Mulliken atomic charges:
              1
     1  O   -0.860277
     2  O   -1.061562
     3  O   -1.009993
     4  O   -1.138229
     5  P    0.890807
     6  Ca   1.405825
     7  Ca   1.376794
     8  Ca   1.396634
 Sum of Mulliken charges=   1.00000

 Dipole moment (field-independent basis, Debye):
    X=     5.9178    Y=     1.2071    Z=    -4.9174  Tot=     7.7883
 Quadrupole moment (field-independent basis, Debye-Ang):
   XX=   -18.0615   YY=   -59.8790   ZZ=   -70.0644
   XY=    36.1866   XZ=   -19.6606   YZ=     7.3708

 Normal termination of Gaussian 03 at Fri Jun 12 17:44:33 2015.
