 Gaussian 03, Revision E.01,
 Gaussian 03:  EM64T-G03RevE.01 11-Sep-2007

 ----------------------------------------------------
 # b3lyp/6-31+G(d,p) int=ultrafine pop=(ReadRadii,MK)
 ----------------------------------------------------

 -------------------------------------
 Ca3PO4_128.mol2c_plusQ.z51130.zip.xyz
 -------------------------------------
 Symbolic Z-matrix:
 Charge =  1 Multiplicity = 1

                         Standard orientation:
 ---------------------------------------------------------------------
 Center     Atomic     Atomic              Coordinates (Angstroms)
 Number     Number      Type              X           Y           Z
 ---------------------------------------------------------------------
    1          8             0       -1.955921    0.139562    0.779979
    2          8             0        0.889624   -1.418480   -0.586171
    3          8             0       -2.100914    0.419821   -0.734861
    4          8             0        1.171770    2.047243   -0.001851
    5         15             0        1.063128   -1.778898    0.989889
    6         20             0       -1.475163   -1.687133   -0.400931
    7         20             0        2.440966    0.409186   -0.381261
    8         20             0       -0.964971    2.136862    0.256939
 ---------------------------------------------------------------------

 SCF Done:  E(RB+HF-LYP) =  -2674.83199496     A.U. after   11 cycles

 The electronic state is 1-A.
 Alpha  occ. eigenvalues -- -145.51438-145.49874-145.45017 -77.25244 -19.29803
 Alpha  occ. eigenvalues --  -19.23905 -19.23675 -19.12599 -15.58285 -15.56746
 Alpha  occ. eigenvalues --  -15.51967 -12.71504 -12.71477 -12.71406 -12.69973
 Alpha  occ. eigenvalues --  -12.69945 -12.69828 -12.65190 -12.65183 -12.65015
 Alpha  occ. eigenvalues --   -6.71683  -4.88359  -4.87925  -4.87017  -1.95433
 Alpha  occ. eigenvalues --   -1.93914  -1.89348  -1.23463  -1.23144  -1.22831
 Alpha  occ. eigenvalues --   -1.21695  -1.21544  -1.20840  -1.17542  -1.17113
 Alpha  occ. eigenvalues --   -1.16575  -1.10743  -1.06694  -0.86941  -0.86645
 Alpha  occ. eigenvalues --   -0.67653  -0.52324  -0.50356  -0.49421  -0.47174
 Alpha  occ. eigenvalues --   -0.46155  -0.44168  -0.34758  -0.32916  -0.32191
 Alpha  occ. eigenvalues --   -0.31697  -0.30740  -0.30482
 Alpha virt. eigenvalues --   -0.24887  -0.19649  -0.17960  -0.14766  -0.12519
 Alpha virt. eigenvalues --   -0.11420  -0.10077  -0.09394  -0.09192  -0.08683
 Alpha virt. eigenvalues --   -0.08069  -0.06366  -0.06241  -0.06183  -0.05928

 Mulliken atomic charges:
              1
     1  O   -0.646876
     2  O   -0.623460
     3  O   -0.636097
     4  O   -1.185978
     5  P   -0.121979
     6  Ca   1.428248
     7  Ca   1.363229
     8  Ca   1.422913
 Sum of Mulliken charges=   1.00000

 Dipole moment (field-independent basis, Debye):
    X=     1.7299    Y=    -3.4254    Z=    -3.2496  Tot=     5.0285
 Quadrupole moment (field-independent basis, Debye-Ang):
   XX=   -42.0198   YY=   -46.2159   ZZ=   -73.2917
   XY=     1.0663   XZ=    -4.3864   YZ=     8.8985

 Normal termination of Gaussian 03 at Fri Jun 12 17:37:34 2015.
