 Gaussian 03, Revision E.01,
 Gaussian 03:  EM64T-G03RevE.01 11-Sep-2007

 ----------------------------------------------------
 # b3lyp/6-31+G(d,p) int=ultrafine pop=(ReadRadii,MK)
 ----------------------------------------------------

 --------------------------------------
 Ca3PO4_113.mol2c_plusQc.z51685.zip.xyz
 --------------------------------------
 Symbolic Z-matrix:
 Charge =  1 Multiplicity = 1

                         Standard orientation:
 ---------------------------------------------------------------------
 Center     Atomic     Atomic              Coordinates (Angstroms)
 Number     Number      Type              X           Y           Z
 ---------------------------------------------------------------------
    1          8             0       -2.068586    1.275010    0.000403
    2          8             0        1.780188   -1.885513   -0.000407
    3          8             0        1.780141    1.884867   -0.000387
    4          8             0       -2.069695   -1.275380    0.000463
    5         15             0       -2.936010    0.000237    0.000283
    6         20             0       -0.200359   -2.592972   -0.000427
    7         20             0       -0.199902    2.593528   -0.000427
    8         20             0        2.833450   -0.000328    0.000613
 ---------------------------------------------------------------------

 SCF Done:  E(RB+HF-LYP) =  -2674.99692705     A.U. after    7 cycles

 The electronic state is 1-A.
 Alpha  occ. eigenvalues -- -145.49209-145.49205-145.42872 -77.29677 -19.27525
 Alpha  occ. eigenvalues --  -19.27524 -19.11838 -19.11830 -15.56114 -15.56111
 Alpha  occ. eigenvalues --  -15.49904 -12.69368 -12.69365 -12.69323 -12.69321
 Alpha  occ. eigenvalues --  -12.69147 -12.69144 -12.63161 -12.63108 -12.62900
 Alpha  occ. eigenvalues --   -6.75165  -4.91611  -4.91388  -4.90945  -1.93356
 Alpha  occ. eigenvalues --   -1.93353  -1.87394  -1.21221  -1.21219  -1.21126
 Alpha  occ. eigenvalues --   -1.21056  -1.20284  -1.20239  -1.15436  -1.15127
 Alpha  occ. eigenvalues --   -1.14224  -1.13366  -1.08164  -0.86236  -0.85662
 Alpha  occ. eigenvalues --   -0.67428  -0.56990  -0.52244  -0.52200  -0.45472
 Alpha  occ. eigenvalues --   -0.43644  -0.40113  -0.33053  -0.31444  -0.30728
 Alpha  occ. eigenvalues --   -0.30323  -0.30162  -0.29708
 Alpha virt. eigenvalues --   -0.19440  -0.18402  -0.17738  -0.14275  -0.11280
 Alpha virt. eigenvalues --   -0.10198  -0.10179  -0.08905  -0.08323  -0.07853
 Alpha virt. eigenvalues --   -0.07521  -0.06905  -0.06052  -0.05561  -0.04928

 Mulliken atomic charges:
              1
     1  O   -0.701375
     2  O   -1.243796
     3  O   -1.243976
     4  O   -0.701455
     5  P    0.646114
     6  Ca   1.442806
     7  Ca   1.442940
     8  Ca   1.358741
 Sum of Mulliken charges=   1.00000

 Dipole moment (field-independent basis, Debye):
    X=    -0.8667    Y=     0.0072    Z=     0.0012  Tot=     0.8667
 Quadrupole moment (field-independent basis, Debye-Ang):
   XX=   -57.2051   YY=   -26.5302   ZZ=   -69.0834
   XY=    -0.0003   XZ=     0.0249   YZ=     0.0000

 Normal termination of Gaussian 03 at Fri Jun 12 17:35:43 2015.
