 Gaussian 03, Revision E.01,
 Gaussian 03:  EM64T-G03RevE.01 11-Sep-2007

 ----------------------------------------------------
 # b3lyp/6-31+G(d,p) int=ultrafine pop=(ReadRadii,MK)
 ----------------------------------------------------

 ------------------------------------
 Ca3PO4_66.mol2c_plusQ.z51481.zip.xyz
 ------------------------------------
 Symbolic Z-matrix:
 Charge =  1 Multiplicity = 1

                         Standard orientation:
 ---------------------------------------------------------------------
 Center     Atomic     Atomic              Coordinates (Angstroms)
 Number     Number      Type              X           Y           Z
 ---------------------------------------------------------------------
    1          8             0        0.634680   -1.337246    0.922639
    2          8             0        0.841198    1.219061    0.922819
    3          8             0       -1.476445    0.120155    0.922319
    4          8             0        0.000574   -0.000596   -1.712301
    5         15             0       -0.000404    0.000849    1.718269
    6         20             0       -0.832925    1.757614   -0.571371
    7         20             0       -1.106493   -1.600611   -0.569661
    8         20             0        1.939717   -0.158189   -0.569861
 ---------------------------------------------------------------------

 SCF Done:  E(RB+HF-LYP) =  -2675.07103433     A.U. after    8 cycles

 The electronic state is 1-A.
 Alpha  occ. eigenvalues -- -145.49645-145.49640-145.49633 -77.25059 -19.21243
 Alpha  occ. eigenvalues --  -19.21236 -19.21203 -19.15948 -15.56479 -15.56475
 Alpha  occ. eigenvalues --  -15.56468 -12.69676 -12.69674 -12.69667 -12.69654
 Alpha  occ. eigenvalues --  -12.69651 -12.69645 -12.69606 -12.69604 -12.69597
 Alpha  occ. eigenvalues --   -6.70088  -4.86437  -4.86437  -4.85901  -1.93826
 Alpha  occ. eigenvalues --   -1.93743  -1.93739  -1.22380  -1.21699  -1.21697
 Alpha  occ. eigenvalues --   -1.21309  -1.21141  -1.21068  -1.21066  -1.20647
 Alpha  occ. eigenvalues --   -1.20642  -1.06759  -1.00364  -1.00349  -0.90946
 Alpha  occ. eigenvalues --   -0.62645  -0.50530  -0.50526  -0.47962  -0.43359
 Alpha  occ. eigenvalues --   -0.43358  -0.38351  -0.38340  -0.38179  -0.36143
 Alpha  occ. eigenvalues --   -0.36139  -0.34597  -0.30863
 Alpha virt. eigenvalues --   -0.19951  -0.18028  -0.18025  -0.12556  -0.12554
 Alpha virt. eigenvalues --   -0.10894  -0.09479  -0.09476  -0.08338  -0.07772
 Alpha virt. eigenvalues --   -0.06545  -0.06114  -0.06113  -0.04765  -0.04716

 Mulliken atomic charges:
              1
     1  O   -1.032039
     2  O   -1.032171
     3  O   -1.032340
     4  O   -1.251071
     5  P    1.097974
     6  Ca   1.416383
     7  Ca   1.416526
     8  Ca   1.416739
 Sum of Mulliken charges=   1.00000

 Dipole moment (field-independent basis, Debye):
    X=     0.0038    Y=    -0.0105    Z=    -8.2314  Tot=     8.2314
 Quadrupole moment (field-independent basis, Debye-Ang):
   XX=   -40.0289   YY=   -40.0548   ZZ=   -90.0181
   XY=     0.0055   XZ=     0.0138   YZ=    -0.0269

 Normal termination of Gaussian 03 at Fri Jun 12 17:44:38 2015.
