 Gaussian 03, Revision E.01,
 Gaussian 03:  EM64T-G03RevE.01 11-Sep-2007

 ----------------------------------------------------
 # b3lyp/6-31+G(d,p) int=ultrafine pop=(ReadRadii,MK)
 ----------------------------------------------------

 ------------------------------------
 Ca3PO4_35.mol2c_plusQ.z51447.zip.xyz
 ------------------------------------
 Symbolic Z-matrix:
 Charge =  1 Multiplicity = 1

                         Standard orientation:
 ---------------------------------------------------------------------
 Center     Atomic     Atomic              Coordinates (Angstroms)
 Number     Number      Type              X           Y           Z
 ---------------------------------------------------------------------
    1          8             0        3.358952    0.666047    0.026710
    2          8             0        1.557229   -1.026570   -0.021540
    3          8             0       -2.962671   -1.328214    0.008980
    4          8             0       -0.888168    0.957973   -0.007300
    5         15             0        3.112079   -0.853193    0.016190
    6         20             0       -0.805461   -1.422497   -0.011910
    7         20             0        1.184903    1.560720   -0.016450
    8         20             0       -3.139638    0.793977    0.013480
 ---------------------------------------------------------------------

 SCF Done:  E(RB+HF-LYP) =  -2675.00686133     A.U. after   10 cycles

 The electronic state is 1-A.
 Alpha  occ. eigenvalues -- -145.52266-145.46976-145.45457 -77.31378 -19.29520
 Alpha  occ. eigenvalues --  -19.28769 -19.17016 -19.10509 -15.59175 -15.53873
 Alpha  occ. eigenvalues --  -15.52388 -12.72439 -12.72395 -12.72194 -12.67115
 Alpha  occ. eigenvalues --  -12.67030 -12.66952 -12.65657 -12.65566 -12.65431
 Alpha  occ. eigenvalues --   -6.76961  -4.93397  -4.93165  -4.92749  -1.96424
 Alpha  occ. eigenvalues --   -1.91162  -1.89806  -1.24357  -1.24344  -1.23311
 Alpha  occ. eigenvalues --   -1.19033  -1.18783  -1.18134  -1.17859  -1.17278
 Alpha  occ. eigenvalues --   -1.17056  -1.15045  -1.09390  -0.91741  -0.84476
 Alpha  occ. eigenvalues --   -0.68452  -0.57416  -0.54753  -0.54070  -0.46483
 Alpha  occ. eigenvalues --   -0.45032  -0.42657  -0.37845  -0.36786  -0.35795
 Alpha  occ. eigenvalues --   -0.30021  -0.28573  -0.28260
 Alpha virt. eigenvalues --   -0.21248  -0.20106  -0.17863  -0.15065  -0.12978
 Alpha virt. eigenvalues --   -0.11118  -0.10414  -0.10252  -0.09289  -0.08847
 Alpha virt. eigenvalues --   -0.08426  -0.07235  -0.06843  -0.06425  -0.05449

 Mulliken atomic charges:
              1
     1  O   -0.653537
     2  O   -0.741628
     3  O   -1.132662
     4  O   -1.321728
     5  P    0.675420
     6  Ca   1.327445
     7  Ca   1.499308
     8  Ca   1.347383
 Sum of Mulliken charges=   1.00000

 Dipole moment (field-independent basis, Debye):
    X=     0.1917    Y=     8.1733    Z=    -0.0968  Tot=     8.1761
 Quadrupole moment (field-independent basis, Debye-Ang):
   XX=   -60.0901   YY=   -52.1779   ZZ=   -68.9205
   XY=   -23.1593   XZ=    -0.3566   YZ=    -0.0205

 Normal termination of Gaussian 03 at Fri Jun 12 17:43:11 2015.
