 Gaussian 03, Revision E.01,
 Gaussian 03:  EM64T-G03RevE.01 11-Sep-2007

 ----------------------------------------------------
 # b3lyp/6-31+G(d,p) int=ultrafine pop=(ReadRadii,MK)
 ----------------------------------------------------

 ------------------------------------
 Ca3PO4_87.mol2c_plusQ.z51504.zip.xyz
 ------------------------------------
 Symbolic Z-matrix:
 Charge =  1 Multiplicity = 1

                         Standard orientation:
 ---------------------------------------------------------------------
 Center     Atomic     Atomic              Coordinates (Angstroms)
 Number     Number      Type              X           Y           Z
 ---------------------------------------------------------------------
    1          8             0        2.384221    0.924568    0.411668
    2          8             0        0.888411    0.989829    0.323048
    3          8             0        0.213420   -1.466831    0.604608
    4          8             0       -1.426219    0.406900    0.854058
    5         15             0        0.002781   -0.089591    1.484818
    6         20             0       -0.898708    2.088709   -0.679512
    7         20             0       -1.873690   -1.466220   -0.488742
    8         20             0        1.946380   -0.897082   -0.822712
 ---------------------------------------------------------------------

 SCF Done:  E(RB+HF-LYP) =  -2674.86109878     A.U. after   12 cycles

 The electronic state is 1-A.
 Alpha  occ. eigenvalues -- -145.54058-145.52986-145.52976 -77.28678 -19.31260
 Alpha  occ. eigenvalues --  -19.25027 -19.24963 -19.24871 -15.60936 -15.59907
 Alpha  occ. eigenvalues --  -15.59847 -12.74146 -12.74110 -12.74052 -12.73115
 Alpha  occ. eigenvalues --  -12.73078 -12.73077 -12.73012 -12.73010 -12.72966
 Alpha  occ. eigenvalues --   -6.73839  -4.90267  -4.90134  -4.89551  -1.97969
 Alpha  occ. eigenvalues --   -1.97023  -1.96976  -1.25814  -1.25391  -1.25350
 Alpha  occ. eigenvalues --   -1.24929  -1.24610  -1.24516  -1.24397  -1.24388
 Alpha  occ. eigenvalues --   -1.24133  -1.15553  -1.09458  -1.04736  -0.92300
 Alpha  occ. eigenvalues --   -0.67256  -0.56995  -0.55379  -0.53933  -0.51270
 Alpha  occ. eigenvalues --   -0.48963  -0.45764  -0.44020  -0.41728  -0.37939
 Alpha  occ. eigenvalues --   -0.35427  -0.34906  -0.27141
 Alpha virt. eigenvalues --   -0.21748  -0.20863  -0.16382  -0.14790  -0.13880
 Alpha virt. eigenvalues --   -0.12408  -0.11954  -0.11150  -0.11011  -0.09938
 Alpha virt. eigenvalues --   -0.09244  -0.07926  -0.07404  -0.07028  -0.06547

 Mulliken atomic charges:
              1
     1  O   -0.566891
     2  O   -0.556900
     3  O   -0.922365
     4  O   -0.846960
     5  P    0.957364
     6  Ca   1.047181
     7  Ca   0.666044
     8  Ca   1.222526
 Sum of Mulliken charges=   1.00000

 Dipole moment (field-independent basis, Debye):
    X=    -2.6635    Y=    -2.0583    Z=    -6.7145  Tot=     7.5110
 Quadrupole moment (field-independent basis, Debye-Ang):
   XX=   -56.0636   YY=   -48.0728   ZZ=   -86.9717
   XY=   -10.5818   XZ=   -10.1195   YZ=    -0.2518

 Normal termination of Gaussian 03 at Fri Jun 12 17:46:25 2015.
