 Gaussian 03, Revision E.01,
 Gaussian 03:  EM64T-G03RevE.01 11-Sep-2007

 ----------------------------------------------------
 # b3lyp/6-31+G(d,p) int=ultrafine pop=(ReadRadii,MK)
 ----------------------------------------------------

 -----------------------------------
 Ca3PO4_5.mol2c_plusQ.z51474.zip.xyz
 -----------------------------------
 Symbolic Z-matrix:
 Charge =  1 Multiplicity = 1

                         Standard orientation:
 ---------------------------------------------------------------------
 Center     Atomic     Atomic              Coordinates (Angstroms)
 Number     Number      Type              X           Y           Z
 ---------------------------------------------------------------------
    1          8             0        1.205829    0.858930    0.923109
    2          8             0        0.000590   -0.000110   -1.711901
    3          8             0       -1.347465    0.615038    0.922009
    4          8             0        0.140424   -1.474128    0.922249
    5         15             0       -0.000440   -0.000390    1.718209
    6         20             0        1.770303   -0.808222   -0.569971
    7         20             0       -0.184738    1.937131   -0.570161
    8         20             0       -1.584986   -1.128508   -0.570711
 ---------------------------------------------------------------------

 SCF Done:  E(RB+HF-LYP) =  -2675.07103787     A.U. after    8 cycles

 The electronic state is 1-A.
 Alpha  occ. eigenvalues -- -145.49642-145.49637-145.49631 -77.25056 -19.21237
 Alpha  occ. eigenvalues --  -19.21232 -19.21198 -19.15941 -15.56476 -15.56473
 Alpha  occ. eigenvalues --  -15.56466 -12.69674 -12.69672 -12.69665 -12.69651
 Alpha  occ. eigenvalues --  -12.69649 -12.69642 -12.69604 -12.69602 -12.69595
 Alpha  occ. eigenvalues --   -6.70086  -4.86434  -4.86434  -4.85898  -1.93823
 Alpha  occ. eigenvalues --   -1.93741  -1.93736  -1.22376  -1.21696  -1.21693
 Alpha  occ. eigenvalues --   -1.21306  -1.21139  -1.21065  -1.21062  -1.20644
 Alpha  occ. eigenvalues --   -1.20640  -1.06756  -1.00362  -1.00342  -0.90939
 Alpha  occ. eigenvalues --   -0.62641  -0.50527  -0.50522  -0.47958  -0.43356
 Alpha  occ. eigenvalues --   -0.43354  -0.38346  -0.38335  -0.38175  -0.36136
 Alpha  occ. eigenvalues --   -0.36134  -0.34591  -0.30859
 Alpha virt. eigenvalues --   -0.19950  -0.18028  -0.18025  -0.12555  -0.12553
 Alpha virt. eigenvalues --   -0.10894  -0.09478  -0.09477  -0.08338  -0.07772
 Alpha virt. eigenvalues --   -0.06545  -0.06114  -0.06113  -0.04765  -0.04716

 Mulliken atomic charges:
              1
     1  O   -1.032378
     2  O   -1.251073
     3  O   -1.032070
     4  O   -1.032234
     5  P    1.097971
     6  Ca   1.416632
     7  Ca   1.416626
     8  Ca   1.416527
 Sum of Mulliken charges=   1.00000

 Dipole moment (field-independent basis, Debye):
    X=     0.0035    Y=     0.0021    Z=    -8.2322  Tot=     8.2322
 Quadrupole moment (field-independent basis, Debye-Ang):
   XX=   -40.0317   YY=   -40.0360   ZZ=   -90.0138
   XY=    -0.0004   XZ=     0.0116   YZ=    -0.0014

 Normal termination of Gaussian 03 at Fri Jun 12 17:44:24 2015.
