 Gaussian 03, Revision E.01,
 Gaussian 03:  EM64T-G03RevE.01 11-Sep-2007

 ----------------------------------------------------
 # b3lyp/6-31+G(d,p) int=ultrafine pop=(ReadRadii,MK)
 ----------------------------------------------------

 ------------------------------------
 Ca3PO4_135.mol2_plusQ.z51138.zip.xyz
 ------------------------------------
 Symbolic Z-matrix:
 Charge =  1 Multiplicity = 1

                         Standard orientation:
 ---------------------------------------------------------------------
 Center     Atomic     Atomic              Coordinates (Angstroms)
 Number     Number      Type              X           Y           Z
 ---------------------------------------------------------------------
    1          8             0        2.950500    0.670513    0.000359
    2          8             0        1.667201   -1.499818   -0.000461
    3          8             0       -0.830910    0.944451    0.000279
    4          8             0       -2.841199   -1.414020    0.000129
    5         15             0        3.073841   -0.877177   -0.000121
    6         20             0       -3.085530    0.692300   -0.000191
    7         20             0        1.075510    1.944352   -0.000041
    8         20             0       -0.673599   -1.459219    0.000199
 ---------------------------------------------------------------------

 SCF Done:  E(RB+HF-LYP) =  -2675.00579448     A.U. after   10 cycles

 The electronic state is 1-A.
 Alpha  occ. eigenvalues -- -145.53268-145.47076-145.44490 -77.29405 -19.27574
 Alpha  occ. eigenvalues --  -19.27200 -19.17714 -19.10350 -15.60161 -15.53975
 Alpha  occ. eigenvalues --  -15.51448 -12.73417 -12.73366 -12.73204 -12.67215
 Alpha  occ. eigenvalues --  -12.67133 -12.67054 -12.64724 -12.64634 -12.64479
 Alpha  occ. eigenvalues --   -6.74955  -4.91395  -4.91171  -4.90734  -1.97361
 Alpha  occ. eigenvalues --   -1.91270  -1.88899  -1.25215  -1.25064  -1.24232
 Alpha  occ. eigenvalues --   -1.19137  -1.18810  -1.18229  -1.17003  -1.16392
 Alpha  occ. eigenvalues --   -1.16279  -1.13246  -1.07846  -0.92328  -0.84317
 Alpha  occ. eigenvalues --   -0.66979  -0.56443  -0.52402  -0.52187  -0.45141
 Alpha  occ. eigenvalues --   -0.43249  -0.40558  -0.38450  -0.37476  -0.36315
 Alpha  occ. eigenvalues --   -0.29851  -0.28440  -0.28142
 Alpha virt. eigenvalues --   -0.21372  -0.19379  -0.18289  -0.14058  -0.13457
 Alpha virt. eigenvalues --   -0.11732  -0.10631  -0.10446  -0.08688  -0.08514
 Alpha virt. eigenvalues --   -0.07774  -0.07164  -0.06437  -0.06132  -0.05561

 Mulliken atomic charges:
              1
     1  O   -0.720014
     2  O   -0.683402
     3  O   -1.345661
     4  O   -1.119811
     5  P    0.671054
     6  Ca   1.326316
     7  Ca   1.524203
     8  Ca   1.347314
 Sum of Mulliken charges=   1.00000

 Dipole moment (field-independent basis, Debye):
    X=    -0.3860    Y=    11.4154    Z=    -0.0022  Tot=    11.4220
 Quadrupole moment (field-independent basis, Debye-Ang):
   XX=   -59.0362   YY=   -46.9186   ZZ=   -69.1131
   XY=   -17.5405   XZ=     0.0039   YZ=    -0.0080

 Normal termination of Gaussian 03 at Fri Jun 12 17:37:40 2015.
