 Gaussian 03, Revision E.01,
 Gaussian 03:  EM64T-G03RevE.01 11-Sep-2007

 ----------------------------------------------------
 # b3lyp/6-31+G(d,p) int=ultrafine pop=(ReadRadii,MK)
 ----------------------------------------------------

 ------------------------------------
 Ca3PO4_131.mol2_plusQ.z51134.zip.xyz
 ------------------------------------
 Symbolic Z-matrix:
 Charge =  1 Multiplicity = 1

                         Standard orientation:
 ---------------------------------------------------------------------
 Center     Atomic     Atomic              Coordinates (Angstroms)
 Number     Number      Type              X           Y           Z
 ---------------------------------------------------------------------
    1          8             0       -2.356162    1.142239   -0.000309
    2          8             0       -2.055499   -1.370241    0.000051
    3          8             0        1.044659    0.186872    0.781661
    4          8             0        1.044869    0.186992   -0.781439
    5         15             0       -3.087180   -0.221772    0.000161
    6         20             0       -0.232642    1.952790   -0.000009
    7         20             0        3.295819    0.021993    0.000031
    8         20             0        0.181061   -1.866799   -0.000129
 ---------------------------------------------------------------------

 SCF Done:  E(RB+HF-LYP) =  -2674.91819256     A.U. after   13 cycles

 The electronic state is 1-A.
 Alpha  occ. eigenvalues -- -145.53257-145.51954-145.50878 -77.29675 -19.29908
 Alpha  occ. eigenvalues --  -19.29899 -19.27465 -19.27375 -15.60131 -15.58850
 Alpha  occ. eigenvalues --  -15.57846 -12.73350 -12.73315 -12.73246 -12.72068
 Alpha  occ. eigenvalues --  -12.72016 -12.71975 -12.71039 -12.71010 -12.70947
 Alpha  occ. eigenvalues --   -6.75177  -4.91620  -4.91402  -4.90951  -1.97251
 Alpha  occ. eigenvalues --   -1.95993  -1.94925  -1.25614  -1.24836  -1.24753
 Alpha  occ. eigenvalues --   -1.23724  -1.23584  -1.23447  -1.22368  -1.22319
 Alpha  occ. eigenvalues --   -1.22280  -1.13588  -1.12928  -1.08058  -0.93678
 Alpha  occ. eigenvalues --   -0.67265  -0.56834  -0.53255  -0.52926  -0.52433
 Alpha  occ. eigenvalues --   -0.52212  -0.51588  -0.45275  -0.43337  -0.40607
 Alpha  occ. eigenvalues --   -0.40468  -0.39806  -0.25622
 Alpha virt. eigenvalues --   -0.20923  -0.19471  -0.19412  -0.17017  -0.14324
 Alpha virt. eigenvalues --   -0.12189  -0.12122  -0.11693  -0.10934  -0.10722
 Alpha virt. eigenvalues --   -0.08671  -0.08076  -0.07727  -0.07168  -0.06157

 Mulliken atomic charges:
              1
     1  O   -0.704808
     2  O   -0.695133
     3  O   -0.567098
     4  O   -0.566991
     5  P    0.626035
     6  Ca   1.233230
     7  Ca   0.707585
     8  Ca   0.967180
 Sum of Mulliken charges=   1.00000

 Dipole moment (field-independent basis, Debye):
    X=     3.4350    Y=     2.1710    Z=    -0.0007  Tot=     4.0636
 Quadrupole moment (field-independent basis, Debye-Ang):
   XX=   -68.7725   YY=   -52.8519   ZZ=   -81.2000
   XY=     0.8080   XZ=    -0.0013   YZ=     0.0022

 Normal termination of Gaussian 03 at Fri Jun 12 17:38:02 2015.
