 Gaussian 03, Revision E.01,
 Gaussian 03:  EM64T-G03RevE.01 11-Sep-2007

 ----------------------------------------------------
 # b3lyp/6-31+G(d,p) int=ultrafine pop=(ReadRadii,MK)
 ----------------------------------------------------

 -------------------------------------
 Ca3PO4_110.mol2c_plusQ.z51111.zip.xyz
 -------------------------------------
 Symbolic Z-matrix:
 Charge =  1 Multiplicity = 1

                         Standard orientation:
 ---------------------------------------------------------------------
 Center     Atomic     Atomic              Coordinates (Angstroms)
 Number     Number      Type              X           Y           Z
 ---------------------------------------------------------------------
    1          8             0        0.994941   -1.425108    0.855429
    2          8             0        0.949098    0.407342   -0.827211
    3          8             0       -0.949922    0.410950    0.824829
    4          8             0       -0.998489   -1.426050   -0.853041
    5         15             0       -0.001180   -0.610729    0.000069
    6         20             0        2.910010   -0.561315   -0.009281
    7         20             0       -2.912010   -0.556633    0.009159
    8         20             0        0.004635    2.389141    0.000069
 ---------------------------------------------------------------------

 SCF Done:  E(RB+HF-LYP) =  -2675.02388911     A.U. after   10 cycles

 The electronic state is 1-A.
 Alpha  occ. eigenvalues -- -145.53427-145.53387-145.51697 -77.32246 -19.24227
 Alpha  occ. eigenvalues --  -19.24185 -19.22112 -19.22109 -15.60312 -15.60273
 Alpha  occ. eigenvalues --  -15.58623 -12.73540 -12.73500 -12.73473 -12.73434
 Alpha  occ. eigenvalues --  -12.73426 -12.73386 -12.71839 -12.71780 -12.71731
 Alpha  occ. eigenvalues --   -6.76612  -4.93041  -4.92953  -4.92877  -1.97338
 Alpha  occ. eigenvalues --   -1.97298  -1.95705  -1.25066  -1.24931  -1.24894
 Alpha  occ. eigenvalues --   -1.24811  -1.24597  -1.24558  -1.23261  -1.23199
 Alpha  occ. eigenvalues --   -1.23018  -1.13449  -1.05313  -1.04507  -1.03719
 Alpha  occ. eigenvalues --   -0.63570  -0.55110  -0.54383  -0.53415  -0.48070
 Alpha  occ. eigenvalues --   -0.45548  -0.45056  -0.43194  -0.42768  -0.40357
 Alpha  occ. eigenvalues --   -0.39057  -0.37939  -0.25280
 Alpha virt. eigenvalues --   -0.22085  -0.20678  -0.15425  -0.13348  -0.13277
 Alpha virt. eigenvalues --   -0.12183  -0.11584  -0.11420  -0.10359  -0.08710
 Alpha virt. eigenvalues --   -0.07705  -0.07169  -0.06127  -0.05498  -0.05270

 Mulliken atomic charges:
              1
     1  O   -0.807517
     2  O   -0.997051
     3  O   -0.997548
     4  O   -0.807384
     5  P    1.778975
     6  Ca   0.904830
     7  Ca   0.902979
     8  Ca   1.022717
 Sum of Mulliken charges=   1.00000

 Dipole moment (field-independent basis, Debye):
    X=     0.0537    Y=     3.1877    Z=    -0.0055  Tot=     3.1882
 Quadrupole moment (field-independent basis, Debye-Ang):
   XX=   -11.1843   YY=   -69.6411   ZZ=   -88.7189
   XY=    -0.0756   XZ=    -2.2593   YZ=    -0.0004

 Normal termination of Gaussian 03 at Fri Jun 12 17:36:21 2015.
