 Gaussian 03, Revision E.01,
 Gaussian 03:  EM64T-G03RevE.01 11-Sep-2007

 ----------------------------------------------------
 # b3lyp/6-31+G(d,p) int=ultrafine pop=(ReadRadii,MK)
 ----------------------------------------------------

 -------------------------------------
 Ca3PO4_134.mol2c_plusQ.z51137.zip.xyz
 -------------------------------------
 Symbolic Z-matrix:
 Charge =  1 Multiplicity = 1

                         Standard orientation:
 ---------------------------------------------------------------------
 Center     Atomic     Atomic              Coordinates (Angstroms)
 Number     Number      Type              X           Y           Z
 ---------------------------------------------------------------------
    1          8             0       -1.095620    0.995773    0.922710
    2          8             0        1.410588    0.451250    0.922080
    3          8             0       -0.314224   -1.446979    0.922590
    4          8             0       -0.000352   -0.000051   -1.712090
    5         15             0        0.000468    0.000019    1.718260
    6         20             0       -1.853506   -0.592886   -0.569920
    7         20             0        0.413018    1.901464   -0.570360
    8         20             0        1.439980   -1.308589   -0.570530
 ---------------------------------------------------------------------

 SCF Done:  E(RB+HF-LYP) =  -2675.07105506     A.U. after    8 cycles

 The electronic state is 1-A.
 Alpha  occ. eigenvalues -- -145.49642-145.49636-145.49635 -77.25057 -19.21224
 Alpha  occ. eigenvalues --  -19.21223 -19.21222 -19.15944 -15.56475 -15.56472
 Alpha  occ. eigenvalues --  -15.56470 -12.69673 -12.69670 -12.69670 -12.69650
 Alpha  occ. eigenvalues --  -12.69648 -12.69646 -12.69603 -12.69601 -12.69600
 Alpha  occ. eigenvalues --   -6.70087  -4.86436  -4.86436  -4.85899  -1.93824
 Alpha  occ. eigenvalues --   -1.93740  -1.93739  -1.22377  -1.21696  -1.21695
 Alpha  occ. eigenvalues --   -1.21307  -1.21140  -1.21065  -1.21065  -1.20643
 Alpha  occ. eigenvalues --   -1.20642  -1.06759  -1.00354  -1.00354  -0.90941
 Alpha  occ. eigenvalues --   -0.62642  -0.50527  -0.50526  -0.47960  -0.43357
 Alpha  occ. eigenvalues --   -0.43356  -0.38342  -0.38341  -0.38176  -0.36136
 Alpha  occ. eigenvalues --   -0.36136  -0.34593  -0.30861
 Alpha virt. eigenvalues --   -0.19950  -0.18027  -0.18026  -0.12555  -0.12554
 Alpha virt. eigenvalues --   -0.10894  -0.09478  -0.09478  -0.08339  -0.07772
 Alpha virt. eigenvalues --   -0.06545  -0.06115  -0.06114  -0.04765  -0.04716

 Mulliken atomic charges:
              1
     1  O   -1.032339
     2  O   -1.032270
     3  O   -1.032291
     4  O   -1.251103
     5  P    1.098108
     6  Ca   1.416670
     7  Ca   1.416611
     8  Ca   1.416614
 Sum of Mulliken charges=   1.00000

 Dipole moment (field-independent basis, Debye):
    X=    -0.0031    Y=     0.0001    Z=    -8.2311  Tot=     8.2311
 Quadrupole moment (field-independent basis, Debye-Ang):
   XX=   -40.0314   YY=   -40.0331   ZZ=   -90.0165
   XY=    -0.0013   XZ=    -0.0088   YZ=    -0.0004

 Normal termination of Gaussian 03 at Fri Jun 12 17:37:33 2015.
