 Gaussian 03, Revision E.01,
 Gaussian 03:  EM64T-G03RevE.01 11-Sep-2007

 ----------------------------------------------------
 # b3lyp/6-31+G(d,p) int=ultrafine pop=(ReadRadii,MK)
 ----------------------------------------------------

 -----------------------------------
 Ca3PO4_91.mol2_plusQ.z51509.zip.xyz
 -----------------------------------
 Symbolic Z-matrix:
 Charge =  1 Multiplicity = 1

                         Standard orientation:
 ---------------------------------------------------------------------
 Center     Atomic     Atomic              Coordinates (Angstroms)
 Number     Number      Type              X           Y           Z
 ---------------------------------------------------------------------
    1          8             0        0.000222   -0.000485    2.593488
    2          8             0        1.183356    0.836813    0.364698
    3          8             0       -1.316412    0.606223    0.364868
    4          8             0        0.133110   -1.443275    0.364178
    5         15             0        0.000084   -0.000168    1.113868
    6         20             0        2.082679   -0.959089   -0.770262
    7         20             0       -1.872192   -1.323819   -0.770132
    8         20             0       -0.210660    2.283323   -0.769902
 ---------------------------------------------------------------------

 SCF Done:  E(RB+HF-LYP) =  -2675.01479562     A.U. after    9 cycles

 The electronic state is 1-A.
 Alpha  occ. eigenvalues -- -145.53868-145.53865-145.53865 -77.31580 -19.24424
 Alpha  occ. eigenvalues --  -19.24422 -19.24421 -19.19208 -15.60742 -15.60740
 Alpha  occ. eigenvalues --  -15.60740 -12.73959 -12.73958 -12.73957 -12.73903
 Alpha  occ. eigenvalues --  -12.73903 -12.73902 -12.73862 -12.73861 -12.73860
 Alpha  occ. eigenvalues --   -6.76004  -4.92413  -4.92413  -4.92179  -1.97816
 Alpha  occ. eigenvalues --   -1.97802  -1.97801  -1.25925  -1.25345  -1.25345
 Alpha  occ. eigenvalues --   -1.25328  -1.25267  -1.25266  -1.25006  -1.24995
 Alpha  occ. eigenvalues --   -1.24995  -1.13132  -1.04761  -1.04760  -1.03147
 Alpha  occ. eigenvalues --   -0.63959  -0.55400  -0.55400  -0.51614  -0.47527
 Alpha  occ. eigenvalues --   -0.47526  -0.44253  -0.42319  -0.42318  -0.42314
 Alpha  occ. eigenvalues --   -0.36901  -0.36900  -0.27481
 Alpha virt. eigenvalues --   -0.21863  -0.21862  -0.16763  -0.14741  -0.14740
 Alpha virt. eigenvalues --   -0.12213  -0.12033  -0.12033  -0.10708  -0.08567
 Alpha virt. eigenvalues --   -0.08567  -0.07684  -0.05760  -0.05760  -0.05644

 Mulliken atomic charges:
              1
     1  O   -0.564931
     2  O   -0.949989
     3  O   -0.950015
     4  O   -0.950090
     5  P    1.097260
     6  Ca   1.105937
     7  Ca   1.105993
     8  Ca   1.105834
 Sum of Mulliken charges=   1.00000

 Dipole moment (field-independent basis, Debye):
    X=    -0.0012    Y=     0.0020    Z=   -10.4043  Tot=    10.4043
 Quadrupole moment (field-independent basis, Debye-Ang):
   XX=   -43.2488   YY=   -43.2546   ZZ=   -98.7847
   XY=     0.0000   XZ=    -0.0023   YZ=     0.0071

 Normal termination of Gaussian 03 at Fri Jun 12 17:46:14 2015.
