 Gaussian 03, Revision E.01,
 Gaussian 03:  EM64T-G03RevE.01 11-Sep-2007

 ----------------------------------------------------
 # b3lyp/6-31+G(d,p) int=ultrafine pop=(ReadRadii,MK)
 ----------------------------------------------------

 -------------------------------------
 Ca3PO4_216.mol2c_plusQ.z51427.zip.xyz
 -------------------------------------
 Symbolic Z-matrix:
 Charge =  1 Multiplicity = 1

                         Standard orientation:
 ---------------------------------------------------------------------
 Center     Atomic     Atomic              Coordinates (Angstroms)
 Number     Number      Type              X           Y           Z
 ---------------------------------------------------------------------
    1          8             0       -4.360060    1.243753   -0.001129
    2          8             0       -4.361740   -1.243027   -0.001149
    3          8             0       -0.174290   -0.000898    0.004221
    4          8             0        4.158030    0.000532   -0.002079
    5         15             0       -5.284250    0.000973   -0.004279
    6         20             0        1.956850    0.000102    0.000021
    7         20             0       -2.326610   -0.001077    0.004371
    8         20             0        6.228170    0.000102   -0.001129
 ---------------------------------------------------------------------

 SCF Done:  E(RB+HF-LYP) =  -2674.95630782     A.U. after    8 cycles

 The electronic state is 1-A.
 Alpha  occ. eigenvalues -- -145.58494-145.43476-145.42138 -77.22094 -19.20168
 Alpha  occ. eigenvalues --  -19.20166 -19.17396 -19.10248 -15.65259 -15.50493
 Alpha  occ. eigenvalues --  -15.49106 -12.78478 -12.78478 -12.78343 -12.63758
 Alpha  occ. eigenvalues --  -12.63758 -12.63440 -12.62387 -12.62321 -12.62105
 Alpha  occ. eigenvalues --   -6.67866  -4.84299  -4.84047  -4.83666  -2.02122
 Alpha  occ. eigenvalues --   -1.88005  -1.86544  -1.29640  -1.29639  -1.28746
 Alpha  occ. eigenvalues --   -1.16108  -1.16104  -1.14821  -1.14677  -1.14292
 Alpha  occ. eigenvalues --   -1.14067  -1.06263  -1.00543  -0.91431  -0.84270
 Alpha  occ. eigenvalues --   -0.58786  -0.47536  -0.45809  -0.45277  -0.38165
 Alpha  occ. eigenvalues --   -0.37294  -0.35849  -0.35474  -0.35474  -0.33721
 Alpha  occ. eigenvalues --   -0.30331  -0.28653  -0.28595
 Alpha virt. eigenvalues --   -0.25863  -0.15955  -0.15951  -0.15458  -0.12954
 Alpha virt. eigenvalues --   -0.12758  -0.10034  -0.08455  -0.08407  -0.08354
 Alpha virt. eigenvalues --   -0.05934  -0.05884  -0.05563  -0.05562  -0.04898

 Mulliken atomic charges:
              1
     1  O   -0.637940
     2  O   -0.637908
     3  O   -1.236810
     4  O   -1.171479
     5  P    0.420116
     6  Ca   1.337016
     7  Ca   1.466814
     8  Ca   1.460190
 Sum of Mulliken charges=   1.00000

 Dipole moment (field-independent basis, Debye):
    X=    30.6888    Y=    -0.0032    Z=     0.0065  Tot=    30.6888
 Quadrupole moment (field-independent basis, Debye-Ang):
   XX=   117.9688   YY=   -80.8042   ZZ=   -69.2492
   XY=     0.0024   XZ=    -0.0641   YZ=    -0.0001

 Normal termination of Gaussian 03 at Fri Jun 12 17:41:40 2015.
