 Gaussian 03, Revision E.01,
 Gaussian 03:  EM64T-G03RevE.01 11-Sep-2007

 ----------------------------------------------------
 # b3lyp/6-31+G(d,p) int=ultrafine pop=(ReadRadii,MK)
 ----------------------------------------------------

 -------------------------------------
 Ca3PO4_202.mol2c_plusQ.z51412.zip.xyz
 -------------------------------------
 Symbolic Z-matrix:
 Charge =  1 Multiplicity = 1

                         Standard orientation:
 ---------------------------------------------------------------------
 Center     Atomic     Atomic              Coordinates (Angstroms)
 Number     Number      Type              X           Y           Z
 ---------------------------------------------------------------------
    1          8             0        0.586973    1.253670   -0.108191
    2          8             0        2.238361   -0.001092    1.331719
    3          8             0       -2.692249   -0.000096   -0.333171
    4          8             0        0.587320   -1.253550   -0.110481
    5         15             0        0.691231   -0.001090    1.034149
    6         20             0        2.440671    0.001198   -0.935391
    7         20             0       -1.623281   -1.818157   -0.076471
    8         20             0       -1.623976    1.818203   -0.075701
 ---------------------------------------------------------------------

 SCF Done:  E(RB+HF-LYP) =  -2674.99967916     A.U. after    8 cycles

 The electronic state is 1-A.
 Alpha  occ. eigenvalues -- -145.52899-145.48521-145.48517 -77.24508 -19.21557
 Alpha  occ. eigenvalues --  -19.21557 -19.18911 -19.12187 -15.59696 -15.55424
 Alpha  occ. eigenvalues --  -15.55419 -12.72879 -12.72874 -12.72863 -12.68676
 Alpha  occ. eigenvalues --  -12.68672 -12.68608 -12.68603 -12.68483 -12.68478
 Alpha  occ. eigenvalues --   -6.69824  -4.86204  -4.86127  -4.85706  -1.96739
 Alpha  occ. eigenvalues --   -1.92689  -1.92662  -1.24716  -1.24001  -1.23965
 Alpha  occ. eigenvalues --   -1.20597  -1.20526  -1.20411  -1.20155  -1.19797
 Alpha  occ. eigenvalues --   -1.19304  -1.06955  -0.99977  -0.99929  -0.86571
 Alpha  occ. eigenvalues --   -0.61878  -0.49711  -0.49548  -0.48421  -0.42891
 Alpha  occ. eigenvalues --   -0.42356  -0.38148  -0.37916  -0.34575  -0.32843
 Alpha  occ. eigenvalues --   -0.32542  -0.30664  -0.30261
 Alpha virt. eigenvalues --   -0.20426  -0.18307  -0.17398  -0.12505  -0.11991
 Alpha virt. eigenvalues --   -0.10384  -0.10049  -0.08961  -0.08368  -0.08011
 Alpha virt. eigenvalues --   -0.07399  -0.06924  -0.06468  -0.05552  -0.05312

 Mulliken atomic charges:
              1
     1  O   -0.957560
     2  O   -0.880214
     3  O   -1.183499
     4  O   -0.957211
     5  P    0.749626
     6  Ca   1.380377
     7  Ca   1.424150
     8  Ca   1.424330
 Sum of Mulliken charges=   1.00000

 Dipole moment (field-independent basis, Debye):
    X=     1.5100    Y=     0.0109    Z=    -7.4978  Tot=     7.6484
 Quadrupole moment (field-independent basis, Debye-Ang):
   XX=   -53.1069   YY=   -32.2957   ZZ=   -70.0872
   XY=     0.0169   XZ=   -28.1155   YZ=    -0.0043

 Normal termination of Gaussian 03 at Fri Jun 12 17:41:29 2015.
