 Gaussian 03, Revision E.01,
 Gaussian 03:  EM64T-G03RevE.01 11-Sep-2007

 ----------------------------------------------------
 # b3lyp/6-31+G(d,p) int=ultrafine pop=(ReadRadii,MK)
 ----------------------------------------------------

 -------------------------------------
 Ca3PO4_180.mol2c_plusQ.z51188.zip.xyz
 -------------------------------------
 Symbolic Z-matrix:
 Charge =  1 Multiplicity = 1

                         Standard orientation:
 ---------------------------------------------------------------------
 Center     Atomic     Atomic              Coordinates (Angstroms)
 Number     Number      Type              X           Y           Z
 ---------------------------------------------------------------------
    1          8             0       -0.000549   -0.000138   -1.711959
    2          8             0       -0.807606    1.241026    0.922251
    3          8             0       -0.670331   -1.320015    0.922531
    4          8             0        1.479005    0.079303    0.922321
    5         15             0        0.000303    0.000198    1.718051
    6         20             0       -1.943381   -0.104197   -0.569719
    7         20             0        0.881301    1.734645   -0.570549
    8         20             0        1.061646   -1.630667   -0.570329
 ---------------------------------------------------------------------

 SCF Done:  E(RB+HF-LYP) =  -2675.07103763     A.U. after    8 cycles

 The electronic state is 1-A.
 Alpha  occ. eigenvalues -- -145.49641-145.49636-145.49634 -77.25055 -19.21226
 Alpha  occ. eigenvalues --  -19.21224 -19.21223 -19.15945 -15.56475 -15.56471
 Alpha  occ. eigenvalues --  -15.56469 -12.69672 -12.69670 -12.69669 -12.69650
 Alpha  occ. eigenvalues --  -12.69648 -12.69645 -12.69602 -12.69601 -12.69599
 Alpha  occ. eigenvalues --   -6.70085  -4.86434  -4.86434  -4.85897  -1.93824
 Alpha  occ. eigenvalues --   -1.93740  -1.93738  -1.22377  -1.21696  -1.21695
 Alpha  occ. eigenvalues --   -1.21307  -1.21139  -1.21065  -1.21064  -1.20643
 Alpha  occ. eigenvalues --   -1.20642  -1.06761  -1.00357  -1.00355  -0.90942
 Alpha  occ. eigenvalues --   -0.62643  -0.50529  -0.50528  -0.47962  -0.43359
 Alpha  occ. eigenvalues --   -0.43358  -0.38345  -0.38344  -0.38178  -0.36137
 Alpha  occ. eigenvalues --   -0.36136  -0.34592  -0.30859
 Alpha virt. eigenvalues --   -0.19950  -0.18027  -0.18026  -0.12554  -0.12554
 Alpha virt. eigenvalues --   -0.10894  -0.09479  -0.09477  -0.08338  -0.07772
 Alpha virt. eigenvalues --   -0.06545  -0.06114  -0.06114  -0.04765  -0.04715

 Mulliken atomic charges:
              1
     1  O   -1.251149
     2  O   -1.032200
     3  O   -1.032200
     4  O   -1.032255
     5  P    1.097995
     6  Ca   1.416669
     7  Ca   1.416564
     8  Ca   1.416576
 Sum of Mulliken charges=   1.00000

 Dipole moment (field-independent basis, Debye):
    X=    -0.0043    Y=    -0.0015    Z=    -8.2294  Tot=     8.2294
 Quadrupole moment (field-independent basis, Debye-Ang):
   XX=   -40.0252   YY=   -40.0354   ZZ=   -90.0168
   XY=     0.0007   XZ=    -0.0166   YZ=    -0.0036

 Normal termination of Gaussian 03 at Fri Jun 12 17:40:15 2015.
