 Gaussian 03, Revision E.01,
 Gaussian 03:  EM64T-G03RevE.01 11-Sep-2007

 ----------------------------------------------------
 # b3lyp/6-31+G(d,p) int=ultrafine pop=(ReadRadii,MK)
 ----------------------------------------------------

 ------------------------------------
 Ca3PO4_39.mol2c_plusQ.z51451.zip.xyz
 ------------------------------------
 Symbolic Z-matrix:
 Charge =  1 Multiplicity = 1

                         Standard orientation:
 ---------------------------------------------------------------------
 Center     Atomic     Atomic              Coordinates (Angstroms)
 Number     Number      Type              X           Y           Z
 ---------------------------------------------------------------------
    1          8             0        0.660825   -1.325167    0.922611
    2          8             0       -1.478319    0.090193    0.922601
    3          8             0        0.816986    1.235080    0.922551
    4          8             0        0.000350   -0.000053   -1.712019
    5         15             0       -0.000169    0.000052    1.718161
    6         20             0       -1.073783   -1.622845   -0.570409
    7         20             0        1.942533   -0.118496   -0.570039
    8         20             0       -0.868559    1.741280   -0.570469
 ---------------------------------------------------------------------

 SCF Done:  E(RB+HF-LYP) =  -2675.07103679     A.U. after    8 cycles

 The electronic state is 1-A.
 Alpha  occ. eigenvalues -- -145.49645-145.49639-145.49639 -77.25055 -19.21231
 Alpha  occ. eigenvalues --  -19.21222 -19.21221 -19.15947 -15.56478 -15.56474
 Alpha  occ. eigenvalues --  -15.56474 -12.69675 -12.69674 -12.69673 -12.69652
 Alpha  occ. eigenvalues --  -12.69652 -12.69650 -12.69605 -12.69604 -12.69604
 Alpha  occ. eigenvalues --   -6.70085  -4.86434  -4.86434  -4.85897  -1.93826
 Alpha  occ. eigenvalues --   -1.93742  -1.93741  -1.22378  -1.21698  -1.21697
 Alpha  occ. eigenvalues --   -1.21309  -1.21142  -1.21067  -1.21067  -1.20645
 Alpha  occ. eigenvalues --   -1.20645  -1.06757  -1.00356  -1.00353  -0.90944
 Alpha  occ. eigenvalues --   -0.62641  -0.50526  -0.50525  -0.47959  -0.43356
 Alpha  occ. eigenvalues --   -0.43356  -0.38344  -0.38342  -0.38176  -0.36138
 Alpha  occ. eigenvalues --   -0.36137  -0.34593  -0.30858
 Alpha virt. eigenvalues --   -0.19951  -0.18028  -0.18028  -0.12556  -0.12555
 Alpha virt. eigenvalues --   -0.10895  -0.09478  -0.09478  -0.08339  -0.07773
 Alpha virt. eigenvalues --   -0.06545  -0.06114  -0.06114  -0.04764  -0.04715

 Mulliken atomic charges:
              1
     1  O   -1.032104
     2  O   -1.032219
     3  O   -1.032119
     4  O   -1.251180
     5  P    1.097830
     6  Ca   1.416575
     7  Ca   1.416641
     8  Ca   1.416576
 Sum of Mulliken charges=   1.00000

 Dipole moment (field-independent basis, Debye):
    X=     0.0018    Y=    -0.0004    Z=    -8.2330  Tot=     8.2330
 Quadrupole moment (field-independent basis, Debye-Ang):
   XX=   -40.0264   YY=   -40.0341   ZZ=   -90.0185
   XY=     0.0000   XZ=     0.0100   YZ=    -0.0014

 Normal termination of Gaussian 03 at Fri Jun 12 17:43:13 2015.
