 Gaussian 03, Revision E.01,
 Gaussian 03:  EM64T-G03RevE.01 11-Sep-2007

 ----------------------------------------------------
 # b3lyp/6-31+G(d,p) int=ultrafine pop=(ReadRadii,MK)
 ----------------------------------------------------

 -----------------------------------
 Ca3PO4_4.mol2c_plusQ.z51463.zip.xyz
 -----------------------------------
 Symbolic Z-matrix:
 Charge =  1 Multiplicity = 1

                         Standard orientation:
 ---------------------------------------------------------------------
 Center     Atomic     Atomic              Coordinates (Angstroms)
 Number     Number      Type              X           Y           Z
 ---------------------------------------------------------------------
    1          8             0        2.114737   -1.571984   -0.232220
    2          8             0       -2.209710    0.556292    0.993070
    3          8             0       -2.533590    0.439543   -0.535300
    4          8             0        0.957161    0.658028   -0.435250
    5         15             0        0.758908   -0.971612   -0.760000
    6         20             0        3.115770    0.338865    0.522990
    7         20             0       -2.089873   -1.584208    0.324340
    8         20             0       -0.926518    1.941301   -0.193450
 ---------------------------------------------------------------------

 SCF Done:  E(RB+HF-LYP) =  -2674.85675491     A.U. after   14 cycles

 The electronic state is 1-A.
 Alpha  occ. eigenvalues -- -145.52329-145.50836-145.50748 -77.24816 -19.25784
 Alpha  occ. eigenvalues --  -19.23988 -19.23546 -19.23270 -15.59266 -15.57712
 Alpha  occ. eigenvalues --  -15.57649 -12.72489 -12.72429 -12.72363 -12.70924
 Alpha  occ. eigenvalues --  -12.70910 -12.70859 -12.70844 -12.70817 -12.70747
 Alpha  occ. eigenvalues --   -6.70601  -4.86984  -4.86663  -4.86596  -1.96335
 Alpha  occ. eigenvalues --   -1.94942  -1.94774  -1.23952  -1.23845  -1.23621
 Alpha  occ. eigenvalues --   -1.23456  -1.22517  -1.22422  -1.22269  -1.22172
 Alpha  occ. eigenvalues --   -1.21930  -1.08786  -1.06551  -1.03724  -0.87574
 Alpha  occ. eigenvalues --   -0.64536  -0.52101  -0.50807  -0.48649  -0.47231
 Alpha  occ. eigenvalues --   -0.46221  -0.44379  -0.41941  -0.41371  -0.39745
 Alpha  occ. eigenvalues --   -0.35250  -0.32265  -0.24444
 Alpha virt. eigenvalues --   -0.21634  -0.19475  -0.18486  -0.14155  -0.12975
 Alpha virt. eigenvalues --   -0.12607  -0.11480  -0.10827  -0.10023  -0.08895
 Alpha virt. eigenvalues --   -0.08092  -0.07580  -0.07458  -0.06702  -0.06183

 Mulliken atomic charges:
              1
     1  O   -0.684519
     2  O   -0.659276
     3  O   -0.641209
     4  O   -0.858333
     5  P    0.312396
     6  Ca   0.981103
     7  Ca   1.100621
     8  Ca   1.449217
 Sum of Mulliken charges=   1.00000

 Dipole moment (field-independent basis, Debye):
    X=     1.7530    Y=     3.7129    Z=     1.4946  Tot=     4.3695
 Quadrupole moment (field-independent basis, Debye-Ang):
   XX=   -48.4324   YY=   -46.8816   ZZ=   -79.7628
   XY=    19.3808   XZ=     5.4230   YZ=    -7.2336

 Normal termination of Gaussian 03 at Fri Jun 12 17:44:39 2015.
