 Gaussian 03, Revision E.01,
 Gaussian 03:  EM64T-G03RevE.01 11-Sep-2007

 ----------------------------------------------------
 # b3lyp/6-31+G(d,p) int=ultrafine pop=(ReadRadii,MK)
 ----------------------------------------------------

 ------------------------------------
 Ca3PO4_117.mol2_plusQ.z51118.zip.xyz
 ------------------------------------
 Symbolic Z-matrix:
 Charge =  1 Multiplicity = 1

                         Standard orientation:
 ---------------------------------------------------------------------
 Center     Atomic     Atomic              Coordinates (Angstroms)
 Number     Number      Type              X           Y           Z
 ---------------------------------------------------------------------
    1          8             0       -1.615664   -1.638666   -0.008510
    2          8             0        2.649395   -1.369852   -0.002830
    3          8             0       -2.717892    0.646820    0.003810
    4          8             0        0.961105    1.667883    0.003830
    5         15             0       -2.957927   -0.878880   -0.010200
    6         20             0        0.643777   -2.045739    0.011640
    7         20             0        2.936978    0.753689   -0.008140
    8         20             0       -1.073087    2.228736    0.005630
 ---------------------------------------------------------------------

 SCF Done:  E(RB+HF-LYP) =  -2674.99270318     A.U. after    9 cycles

 The electronic state is 1-A.
 Alpha  occ. eigenvalues -- -145.50467-145.48025-145.44050 -77.30000 -19.27663
 Alpha  occ. eigenvalues --  -19.27609 -19.13786 -19.11180 -15.57368 -15.54966
 Alpha  occ. eigenvalues --  -15.51022 -12.70623 -12.70572 -12.70406 -12.68223
 Alpha  occ. eigenvalues --  -12.68203 -12.67967 -12.64275 -12.64202 -12.64054
 Alpha  occ. eigenvalues --   -6.75475  -4.91922  -4.91699  -4.91255  -1.94612
 Alpha  occ. eigenvalues --   -1.92272  -1.88453  -1.22477  -1.22336  -1.21498
 Alpha  occ. eigenvalues --   -1.20196  -1.20071  -1.19282  -1.16431  -1.16014
 Alpha  occ. eigenvalues --   -1.15340  -1.13589  -1.08257  -0.87699  -0.85210
 Alpha  occ. eigenvalues --   -0.67494  -0.57022  -0.52495  -0.52414  -0.45556
 Alpha  occ. eigenvalues --   -0.43652  -0.40513  -0.34302  -0.32380  -0.31934
 Alpha  occ. eigenvalues --   -0.30975  -0.29449  -0.29130
 Alpha virt. eigenvalues --   -0.19656  -0.19264  -0.16803  -0.15167  -0.11844
 Alpha virt. eigenvalues --   -0.10427  -0.09810  -0.09795  -0.08599  -0.07887
 Alpha virt. eigenvalues --   -0.07138  -0.07026  -0.06543  -0.05760  -0.05358

 Mulliken atomic charges:
              1
     1  O   -0.691717
     2  O   -1.188142
     3  O   -0.716257
     4  O   -1.292569
     5  P    0.677144
     6  Ca   1.381455
     7  Ca   1.360414
     8  Ca   1.469673
 Sum of Mulliken charges=   1.00000

 Dipole moment (field-independent basis, Debye):
    X=    -0.5798    Y=     5.5984    Z=     0.0512  Tot=     5.6286
 Quadrupole moment (field-independent basis, Debye-Ang):
   XX=   -55.9364   YY=   -35.7225   ZZ=   -69.0360
   XY=     5.1670   XZ=    -0.1203   YZ=    -0.2528

 Normal termination of Gaussian 03 at Fri Jun 12 17:36:00 2015.
