 Gaussian 03, Revision E.01,
 Gaussian 03:  EM64T-G03RevE.01 11-Sep-2007

 ----------------------------------------------------
 # b3lyp/6-31+G(d,p) int=ultrafine pop=(ReadRadii,MK)
 ----------------------------------------------------

 -----------------------------------
 Ca3PO4_81.mol2_plusQ.z51498.zip.xyz
 -----------------------------------
 Symbolic Z-matrix:
 Charge =  1 Multiplicity = 1

                         Standard orientation:
 ---------------------------------------------------------------------
 Center     Atomic     Atomic              Coordinates (Angstroms)
 Number     Number      Type              X           Y           Z
 ---------------------------------------------------------------------
    1          8             0       -2.947600    0.670612    0.000260
    2          8             0       -1.668370   -1.502828    0.000380
    3          8             0        2.840090   -1.415249    0.000500
    4          8             0        0.830820    0.944631   -0.000460
    5         15             0       -3.073620   -0.876988    0.000360
    6         20             0       -1.074390    1.946632   -0.000220
    7         20             0        0.672380   -1.458898   -0.000700
    8         20             0        3.085250    0.691141    0.000380
 ---------------------------------------------------------------------

 SCF Done:  E(RB+HF-LYP) =  -2675.00579486     A.U. after   10 cycles

 The electronic state is 1-A.
 Alpha  occ. eigenvalues -- -145.53277-145.47073-145.44485 -77.29406 -19.27576
 Alpha  occ. eigenvalues --  -19.27196 -19.17721 -19.10352 -15.60170 -15.53973
 Alpha  occ. eigenvalues --  -15.51444 -12.73426 -12.73374 -12.73213 -12.67212
 Alpha  occ. eigenvalues --  -12.67130 -12.67051 -12.64720 -12.64629 -12.64474
 Alpha  occ. eigenvalues --   -6.74955  -4.91395  -4.91171  -4.90734  -1.97369
 Alpha  occ. eigenvalues --   -1.91269  -1.88894  -1.25223  -1.25071  -1.24240
 Alpha  occ. eigenvalues --   -1.19135  -1.18809  -1.18228  -1.16999  -1.16388
 Alpha  occ. eigenvalues --   -1.16275  -1.13240  -1.07845  -0.92334  -0.84314
 Alpha  occ. eigenvalues --   -0.66979  -0.56443  -0.52395  -0.52182  -0.45140
 Alpha  occ. eigenvalues --   -0.43247  -0.40553  -0.38456  -0.37483  -0.36321
 Alpha  occ. eigenvalues --   -0.29847  -0.28437  -0.28140
 Alpha virt. eigenvalues --   -0.21381  -0.19378  -0.18291  -0.14054  -0.13462
 Alpha virt. eigenvalues --   -0.11740  -0.10631  -0.10447  -0.08685  -0.08515
 Alpha virt. eigenvalues --   -0.07774  -0.07165  -0.06436  -0.06128  -0.05563

 Mulliken atomic charges:
              1
     1  O   -0.720376
     2  O   -0.683408
     3  O   -1.119685
     4  O   -1.345731
     5  P    0.671258
     6  Ca   1.524310
     7  Ca   1.347368
     8  Ca   1.326263
 Sum of Mulliken charges=   1.00000

 Dipole moment (field-independent basis, Debye):
    X=     0.3911    Y=    11.4377    Z=    -0.0044  Tot=    11.4444
 Quadrupole moment (field-independent basis, Debye-Ang):
   XX=   -59.0128   YY=   -46.9168   ZZ=   -69.1144
   XY=    17.5123   XZ=     0.0023   YZ=     0.0146

 Normal termination of Gaussian 03 at Fri Jun 12 17:45:46 2015.
