 Gaussian 03, Revision E.01,
 Gaussian 03:  EM64T-G03RevE.01 11-Sep-2007

 ----------------------------------------------------
 # b3lyp/6-31+G(d,p) int=ultrafine pop=(ReadRadii,MK)
 ----------------------------------------------------

 -------------------------------------
 Ca3PO4_89.mol2cc_plusQ.z51506.zip.xyz
 -------------------------------------
 Symbolic Z-matrix:
 Charge =  1 Multiplicity = 1

                         Standard orientation:
 ---------------------------------------------------------------------
 Center     Atomic     Atomic              Coordinates (Angstroms)
 Number     Number      Type              X           Y           Z
 ---------------------------------------------------------------------
    1          8             0        1.244061    0.787590    1.224500
    2          8             0        1.036171   -0.763830    1.150890
    3          8             0        0.968491   -0.272060   -1.295890
    4          8             0       -1.251999   -0.575940   -0.138540
    5         15             0        0.178651   -1.307710   -0.306270
    6         20             0       -3.468189   -0.217030    0.180070
    7         20             0       -0.375159    1.607490   -0.293050
    8         20             0        2.910671   -0.079980   -0.033700
 ---------------------------------------------------------------------

 SCF Done:  E(RB+HF-LYP) =  -2674.87178689     A.U. after   12 cycles

 The electronic state is 1-A.
 Alpha  occ. eigenvalues -- -145.55104-145.51369-145.50359 -77.27604 -19.30427
 Alpha  occ. eigenvalues --  -19.26901 -19.24326 -19.23356 -15.61914 -15.58315
 Alpha  occ. eigenvalues --  -15.57256 -12.75136 -12.75075 -12.75051 -12.71502
 Alpha  occ. eigenvalues --  -12.71497 -12.71402 -12.70461 -12.70423 -12.70383
 Alpha  occ. eigenvalues --   -6.72828  -4.89246  -4.89123  -4.88605  -1.98998
 Alpha  occ. eigenvalues --   -1.95369  -1.94431  -1.26989  -1.26561  -1.26239
 Alpha  occ. eigenvalues --   -1.22917  -1.22788  -1.22644  -1.22092  -1.21873
 Alpha  occ. eigenvalues --   -1.21776  -1.13964  -1.08288  -1.03814  -0.94574
 Alpha  occ. eigenvalues --   -0.66264  -0.56520  -0.53705  -0.53121  -0.49732
 Alpha  occ. eigenvalues --   -0.48742  -0.44428  -0.41626  -0.41241  -0.39072
 Alpha  occ. eigenvalues --   -0.37660  -0.35368  -0.25484
 Alpha virt. eigenvalues --   -0.22699  -0.19553  -0.16338  -0.14082  -0.13108
 Alpha virt. eigenvalues --   -0.12968  -0.12610  -0.11093  -0.10150  -0.09529
 Alpha virt. eigenvalues --   -0.07736  -0.07366  -0.06684  -0.06558  -0.06134

 Mulliken atomic charges:
              1
     1  O   -0.621872
     2  O   -0.474872
     3  O   -0.925343
     4  O   -0.925239
     5  P    1.132906
     6  Ca   0.499710
     7  Ca   1.089836
     8  Ca   1.224874
 Sum of Mulliken charges=   1.00000

 Dipole moment (field-independent basis, Debye):
    X=     4.4173    Y=     2.1783    Z=    -1.7844  Tot=     5.2385
 Quadrupole moment (field-independent basis, Debye-Ang):
   XX=    -3.6098   YY=   -74.0427   ZZ=   -91.5083
   XY=     5.7693   XZ=    -5.5663   YZ=    -4.6076

 Normal termination of Gaussian 03 at Fri Jun 12 17:46:28 2015.
