 Gaussian 03, Revision E.01,
 Gaussian 03:  EM64T-G03RevE.01 11-Sep-2007

 ----------------------------------------------------
 # b3lyp/6-31+G(d,p) int=ultrafine pop=(ReadRadii,MK)
 ----------------------------------------------------

 ------------------------------------
 Ca3PO4_42.mol2c_plusQ.z51455.zip.xyz
 ------------------------------------
 Symbolic Z-matrix:
 Charge =  1 Multiplicity = 1

                         Standard orientation:
 ---------------------------------------------------------------------
 Center     Atomic     Atomic              Coordinates (Angstroms)
 Number     Number      Type              X           Y           Z
 ---------------------------------------------------------------------
    1          8             0       -2.955730    0.669868    0.000998
    2          8             0       -1.664089   -1.494901   -0.001232
    3          8             0        2.843891   -1.411828   -0.000472
    4          8             0        0.830350    0.944211    0.000648
    5         15             0       -3.073399   -0.878072    0.000628
    6         20             0       -1.077861    1.940530   -0.000792
    7         20             0        0.676221   -1.459989   -0.000092
    8         20             0        3.084920    0.695073    0.000438
 ---------------------------------------------------------------------

 SCF Done:  E(RB+HF-LYP) =  -2675.00579593     A.U. after   10 cycles

 The electronic state is 1-A.
 Alpha  occ. eigenvalues -- -145.53261-145.47073-145.44499 -77.29415 -19.27582
 Alpha  occ. eigenvalues --  -19.27214 -19.17707 -19.10351 -15.60154 -15.53972
 Alpha  occ. eigenvalues --  -15.51456 -12.73410 -12.73359 -12.73196 -12.67212
 Alpha  occ. eigenvalues --  -12.67130 -12.67050 -12.64732 -12.64642 -12.64487
 Alpha  occ. eigenvalues --   -6.74966  -4.91406  -4.91182  -4.90745  -1.97354
 Alpha  occ. eigenvalues --   -1.91267  -1.88906  -1.25209  -1.25059  -1.24224
 Alpha  occ. eigenvalues --   -1.19134  -1.18808  -1.18226  -1.17010  -1.16399
 Alpha  occ. eigenvalues --   -1.16288  -1.13261  -1.07857  -0.92322  -0.84317
 Alpha  occ. eigenvalues --   -0.66988  -0.56451  -0.52420  -0.52201  -0.45151
 Alpha  occ. eigenvalues --   -0.43261  -0.40571  -0.38443  -0.37468  -0.36310
 Alpha  occ. eigenvalues --   -0.29851  -0.28439  -0.28143
 Alpha virt. eigenvalues --   -0.21361  -0.19390  -0.18284  -0.14067  -0.13451
 Alpha virt. eigenvalues --   -0.11721  -0.10634  -0.10444  -0.08694  -0.08514
 Alpha virt. eigenvalues --   -0.07775  -0.07162  -0.06441  -0.06140  -0.05559

 Mulliken atomic charges:
              1
     1  O   -0.719329
     2  O   -0.683314
     3  O   -1.119919
     4  O   -1.345423
     5  P    0.670632
     6  Ca   1.523989
     7  Ca   1.347077
     8  Ca   1.326289
 Sum of Mulliken charges=   1.00000

 Dipole moment (field-independent basis, Debye):
    X=     0.3713    Y=    11.3807    Z=    -0.0028  Tot=    11.3867
 Quadrupole moment (field-independent basis, Debye-Ang):
   XX=   -59.1344   YY=   -46.8998   ZZ=   -69.1125
   XY=    17.5909   XZ=     0.0237   YZ=    -0.0264

 Normal termination of Gaussian 03 at Fri Jun 12 17:43:33 2015.
