 Gaussian 03, Revision E.01,
 Gaussian 03:  EM64T-G03RevE.01 11-Sep-2007

 ----------------------------------------------------
 # b3lyp/6-31+G(d,p) int=ultrafine pop=(ReadRadii,MK)
 ----------------------------------------------------

 -----------------------------------
 Ca3PO4_1.mol2c_plusQ.z51209.zip.xyz
 -----------------------------------
 Symbolic Z-matrix:
 Charge =  1 Multiplicity = 1

                         Standard orientation:
 ---------------------------------------------------------------------
 Center     Atomic     Atomic              Coordinates (Angstroms)
 Number     Number      Type              X           Y           Z
 ---------------------------------------------------------------------
    1          8             0       -3.359929    0.665861    0.002329
    2          8             0        0.887971    0.958249    0.000739
    3          8             0       -1.556670   -1.025850   -0.002891
    4          8             0        2.963040   -1.327772    0.000149
    5         15             0       -3.112090   -0.853229    0.001429
    6         20             0       -1.185138    1.560430   -0.001591
    7         20             0        3.139551    0.794447    0.000869
    8         20             0        0.805890   -1.423151   -0.000481
 ---------------------------------------------------------------------

 SCF Done:  E(RB+HF-LYP) =  -2675.00690649     A.U. after   10 cycles

 The electronic state is 1-A.
 Alpha  occ. eigenvalues -- -145.52336-145.46890-145.45476 -77.31208 -19.29495
 Alpha  occ. eigenvalues --  -19.28800 -19.16934 -19.10387 -15.59240 -15.53791
 Alpha  occ. eigenvalues --  -15.52402 -12.72505 -12.72460 -12.72260 -12.67033
 Alpha  occ. eigenvalues --  -12.66948 -12.66869 -12.65672 -12.65581 -12.65446
 Alpha  occ. eigenvalues --   -6.76828  -4.93261  -4.93029  -4.92614  -1.96478
 Alpha  occ. eigenvalues --   -1.91091  -1.89812  -1.24408  -1.24397  -1.23360
 Alpha  occ. eigenvalues --   -1.18964  -1.18718  -1.18064  -1.17864  -1.17279
 Alpha  occ. eigenvalues --   -1.17046  -1.15047  -1.09398  -0.91680  -0.84357
 Alpha  occ. eigenvalues --   -0.68446  -0.57426  -0.54756  -0.54072  -0.46500
 Alpha  occ. eigenvalues --   -0.45050  -0.42632  -0.37788  -0.36734  -0.35743
 Alpha  occ. eigenvalues --   -0.29918  -0.28471  -0.28151
 Alpha virt. eigenvalues --   -0.21223  -0.20115  -0.17844  -0.15063  -0.12988
 Alpha virt. eigenvalues --   -0.11124  -0.10413  -0.10232  -0.09289  -0.08831
 Alpha virt. eigenvalues --   -0.08413  -0.07229  -0.06841  -0.06414  -0.05451

 Mulliken atomic charges:
              1
     1  O   -0.655178
     2  O   -1.320012
     3  O   -0.742240
     4  O   -1.128831
     5  P    0.678157
     6  Ca   1.497165
     7  Ca   1.345744
     8  Ca   1.325195
 Sum of Mulliken charges=   1.00000

 Dipole moment (field-independent basis, Debye):
    X=    -0.1698    Y=     8.1175    Z=    -0.0093  Tot=     8.1192
 Quadrupole moment (field-independent basis, Debye-Ang):
   XX=   -60.0495   YY=   -52.2230   ZZ=   -68.9750
   XY=    23.1491   XZ=     0.0333   YZ=    -0.0295

 Normal termination of Gaussian 03 at Fri Jun 12 17:41:22 2015.
