 Gaussian 03, Revision E.01,
 Gaussian 03:  EM64T-G03RevE.01 11-Sep-2007

 ----------------------------------------------------
 # b3lyp/6-31+G(d,p) int=ultrafine pop=(ReadRadii,MK)
 ----------------------------------------------------

 ------------------------------------
 Ca3PO4_120.mol2_plusQ.z51122.zip.xyz
 ------------------------------------
 Symbolic Z-matrix:
 Charge =  1 Multiplicity = 1

                         Standard orientation:
 ---------------------------------------------------------------------
 Center     Atomic     Atomic              Coordinates (Angstroms)
 Number     Number      Type              X           Y           Z
 ---------------------------------------------------------------------
    1          8             0        0.749790   -0.000225    1.321870
    2          8             0        2.167200    0.001215    0.760660
    3          8             0       -1.206410   -1.305510   -0.455630
    4          8             0       -1.208031    1.304470   -0.455380
    5         15             0       -1.092890   -0.000411   -1.561370
    6         20             0       -1.499590   -0.000708    1.375500
    7         20             0        1.060047   -1.691347   -0.336620
    8         20             0        1.058192    1.692383   -0.336460
 ---------------------------------------------------------------------

 SCF Done:  E(RB+HF-LYP) =  -2674.89010768     A.U. after    7 cycles

 The electronic state is 1-A.
 Alpha  occ. eigenvalues -- -145.52819-145.50761-145.50760 -77.21496 -19.26310
 Alpha  occ. eigenvalues --  -19.25931 -19.22263 -19.22262 -15.59591 -15.57612
 Alpha  occ. eigenvalues --  -15.57611 -12.72775 -12.72774 -12.72752 -12.70847
 Alpha  occ. eigenvalues --  -12.70846 -12.70796 -12.70794 -12.70715 -12.70714
 Alpha  occ. eigenvalues --   -6.67303  -4.83739  -4.83468  -4.83043  -1.96768
 Alpha  occ. eigenvalues --   -1.94808  -1.94753  -1.24744  -1.24312  -1.24224
 Alpha  occ. eigenvalues --   -1.23218  -1.22465  -1.22312  -1.22185  -1.22120
 Alpha  occ. eigenvalues --   -1.21777  -1.10231  -1.04691  -1.00694  -0.89614
 Alpha  occ. eigenvalues --   -0.63134  -0.51643  -0.49763  -0.48644  -0.48469
 Alpha  occ. eigenvalues --   -0.47606  -0.44973  -0.41616  -0.39259  -0.37723
 Alpha  occ. eigenvalues --   -0.35796  -0.34541  -0.25349
 Alpha virt. eigenvalues --   -0.20587  -0.19189  -0.18823  -0.13460  -0.13072
 Alpha virt. eigenvalues --   -0.11283  -0.11002  -0.10667  -0.09122  -0.08672
 Alpha virt. eigenvalues --   -0.08244  -0.07168  -0.06823  -0.06449  -0.05779

 Mulliken atomic charges:
              1
     1  O   -0.673376
     2  O   -0.608359
     3  O   -0.776282
     4  O   -0.776363
     5  P   -0.226414
     6  Ca   1.539954
     7  Ca   1.260536
     8  Ca   1.260305
 Sum of Mulliken charges=   1.00000

 Dipole moment (field-independent basis, Debye):
    X=     0.9979    Y=    -0.0003    Z=     5.3929  Tot=     5.4844
 Quadrupole moment (field-independent basis, Debye-Ang):
   XX=   -67.1763   YY=   -43.8630   ZZ=   -71.1864
   XY=    -0.0124   XZ=   -29.6534   YZ=    -0.0095

 Normal termination of Gaussian 03 at Fri Jun 12 17:36:21 2015.
