 Gaussian 03, Revision E.01,
 Gaussian 03:  EM64T-G03RevE.01 11-Sep-2007

 ----------------------------------------------------
 # b3lyp/6-31+G(d,p) int=ultrafine pop=(ReadRadii,MK)
 ----------------------------------------------------

 ------------------------------------
 Ca3PO4_37.mol2c_plusQ.z51449.zip.xyz
 ------------------------------------
 Symbolic Z-matrix:
 Charge =  1 Multiplicity = 1

                         Standard orientation:
 ---------------------------------------------------------------------
 Center     Atomic     Atomic              Coordinates (Angstroms)
 Number     Number      Type              X           Y           Z
 ---------------------------------------------------------------------
    1          8             0       -1.739092   -1.708267   -0.000520
    2          8             0        2.047299   -0.888972   -0.784680
    3          8             0        2.046249   -0.887202    0.785740
    4          8             0       -2.257919    0.779334    0.000430
    5         15             0       -2.856371   -0.640155   -0.001610
    6         20             0        0.463957   -2.239650    0.001160
    7         20             0        2.526662    1.174547   -0.001400
    8         20             0       -0.886956    2.627262    0.001060
 ---------------------------------------------------------------------

 SCF Done:  E(RB+HF-LYP) =  -2674.90063731     A.U. after   10 cycles

 The electronic state is 1-A.
 Alpha  occ. eigenvalues -- -145.51407-145.50957-145.49492 -77.29439 -19.27283
 Alpha  occ. eigenvalues --  -19.27147 -19.23964 -19.23930 -15.58397 -15.57831
 Alpha  occ. eigenvalues --  -15.56467 -12.71592 -12.71577 -12.71466 -12.71063
 Alpha  occ. eigenvalues --  -12.71049 -12.70903 -12.69684 -12.69653 -12.69538
 Alpha  occ. eigenvalues --   -6.74926  -4.91371  -4.91151  -4.90702  -1.95527
 Alpha  occ. eigenvalues --   -1.95025  -1.93677  -1.23157  -1.23030  -1.22962
 Alpha  occ. eigenvalues --   -1.22711  -1.22658  -1.22630  -1.21319  -1.21153
 Alpha  occ. eigenvalues --   -1.20985  -1.13244  -1.07948  -1.06514  -0.87737
 Alpha  occ. eigenvalues --   -0.67205  -0.56772  -0.52051  -0.51926  -0.47330
 Alpha  occ. eigenvalues --   -0.46451  -0.45148  -0.44572  -0.43333  -0.39979
 Alpha  occ. eigenvalues --   -0.35755  -0.32202  -0.27375
 Alpha virt. eigenvalues --   -0.19208  -0.18703  -0.17853  -0.14892  -0.13674
 Alpha virt. eigenvalues --   -0.12169  -0.11966  -0.10033  -0.09275  -0.08009
 Alpha virt. eigenvalues --   -0.07804  -0.07422  -0.06922  -0.06780  -0.05865

 Mulliken atomic charges:
              1
     1  O   -0.712063
     2  O   -0.642175
     3  O   -0.641360
     4  O   -0.627216
     5  P    0.677974
     6  Ca   1.445636
     7  Ca   0.912959
     8  Ca   0.586245
 Sum of Mulliken charges=   1.00000

 Dipole moment (field-independent basis, Debye):
    X=     1.8196    Y=     0.6452    Z=     0.0058  Tot=     1.9306
 Quadrupole moment (field-independent basis, Debye-Ang):
   XX=   -62.3654   YY=   -34.5905   ZZ=   -80.2283
   XY=     0.0289   XZ=    -0.0184   YZ=    -0.0166

 Normal termination of Gaussian 03 at Fri Jun 12 17:43:15 2015.
