 Gaussian 03, Revision E.01,
 Gaussian 03:  EM64T-G03RevE.01 11-Sep-2007

 ----------------------------------------------------
 # b3lyp/6-31+G(d,p) int=ultrafine pop=(ReadRadii,MK)
 ----------------------------------------------------

 -------------------------------------
 Ca3PO4_136.mol2c_plusQ.z51139.zip.xyz
 -------------------------------------
 Symbolic Z-matrix:
 Charge =  1 Multiplicity = 1

                         Standard orientation:
 ---------------------------------------------------------------------
 Center     Atomic     Atomic              Coordinates (Angstroms)
 Number     Number      Type              X           Y           Z
 ---------------------------------------------------------------------
    1          8             0        0.384550    1.113610   -0.005731
    2          8             0        2.494801   -1.089419    0.788459
    3          8             0       -1.959559   -0.877072   -0.020661
    4          8             0        2.508941   -1.083829   -0.778361
    5         15             0       -3.545739   -0.702952    0.025509
    6         20             0        0.389121   -1.269120   -0.014771
    7         20             0       -1.726770    1.564608   -0.010781
    8         20             0        2.625460    1.006411    0.012939
 ---------------------------------------------------------------------

 SCF Done:  E(RB+HF-LYP) =  -2674.85222150     A.U. after   11 cycles

 The electronic state is 1-A.
 Alpha  occ. eigenvalues -- -145.52107-145.48196-145.46232 -77.25912 -19.30393
 Alpha  occ. eigenvalues --  -19.20743 -19.20667 -19.17021 -15.59043 -15.55057
 Alpha  occ. eigenvalues --  -15.53087 -12.72302 -12.72240 -12.72077 -12.68268
 Alpha  occ. eigenvalues --  -12.68237 -12.68167 -12.66326 -12.66284 -12.66174
 Alpha  occ. eigenvalues --   -6.72223  -4.88936  -4.88431  -4.87554  -1.96290
 Alpha  occ. eigenvalues --   -1.92342  -1.90418  -1.24191  -1.24117  -1.23023
 Alpha  occ. eigenvalues --   -1.20777  -1.19953  -1.19524  -1.18219  -1.18119
 Alpha  occ. eigenvalues --   -1.17846  -1.11694  -1.03301  -0.91781  -0.84443
 Alpha  occ. eigenvalues --   -0.68395  -0.51801  -0.50928  -0.50661  -0.44159
 Alpha  occ. eigenvalues --   -0.42529  -0.41668  -0.37644  -0.36642  -0.35840
 Alpha  occ. eigenvalues --   -0.31189  -0.30746  -0.29500
 Alpha virt. eigenvalues --   -0.25094  -0.20576  -0.17889  -0.14976  -0.13426
 Alpha virt. eigenvalues --   -0.11175  -0.11067  -0.10995  -0.09541  -0.09049
 Alpha virt. eigenvalues --   -0.08161  -0.07027  -0.06598  -0.05871  -0.05803

 Mulliken atomic charges:
              1
     1  O   -1.321793
     2  O   -0.653021
     3  O   -0.575544
     4  O   -0.654142
     5  P    0.053539
     6  Ca   1.393146
     7  Ca   1.309457
     8  Ca   1.448358
 Sum of Mulliken charges=   1.00000

 Dipole moment (field-independent basis, Debye):
    X=    -3.2785    Y=    10.0698    Z=    -0.0420  Tot=    10.5901
 Quadrupole moment (field-independent basis, Debye-Ang):
   XX=   -51.9579   YY=   -51.6676   ZZ=   -72.6882
   XY=    13.5276   XZ=     0.3577   YZ=     0.1180

 Normal termination of Gaussian 03 at Fri Jun 12 17:37:46 2015.
