 Gaussian 03, Revision E.01,
 Gaussian 03:  EM64T-G03RevE.01 11-Sep-2007

 ----------------------------------------------------
 # b3lyp/6-31+G(d,p) int=ultrafine pop=(ReadRadii,MK)
 ----------------------------------------------------

 ------------------------------------
 Ca3PO4_60.mol2c_plusQ.z51475.zip.xyz
 ------------------------------------
 Symbolic Z-matrix:
 Charge =  1 Multiplicity = 1

                         Standard orientation:
 ---------------------------------------------------------------------
 Center     Atomic     Atomic              Coordinates (Angstroms)
 Number     Number      Type              X           Y           Z
 ---------------------------------------------------------------------
    1          8             0       -2.941213   -1.065287   -0.000419
    2          8             0        1.438166   -1.364060   -0.783599
    3          8             0       -1.428462    0.899382    0.000061
    4          8             0        1.437976   -1.362510    0.784301
    5         15             0       -2.943052    0.466623   -0.000479
    6         20             0        3.071737   -0.028971   -0.000529
    7         20             0        0.374689    2.444321    0.000261
    8         20             0       -0.641724   -1.608328    0.000491
 ---------------------------------------------------------------------

 SCF Done:  E(RB+HF-LYP) =  -2674.89970111     A.U. after   10 cycles

 The electronic state is 1-A.
 Alpha  occ. eigenvalues -- -145.52338-145.50718-145.50191 -77.31388 -19.29851
 Alpha  occ. eigenvalues --  -19.28750 -19.24338 -19.24318 -15.59311 -15.57657
 Alpha  occ. eigenvalues --  -15.57066 -12.72496 -12.72489 -12.72392 -12.70871
 Alpha  occ. eigenvalues --  -12.70842 -12.70744 -12.70313 -12.70296 -12.70119
 Alpha  occ. eigenvalues --   -6.77008  -4.93440  -4.93214  -4.92790  -1.96407
 Alpha  occ. eigenvalues --   -1.94811  -1.94310  -1.23853  -1.23848  -1.23554
 Alpha  occ. eigenvalues --   -1.23060  -1.22277  -1.22254  -1.22213  -1.22011
 Alpha  occ. eigenvalues --   -1.21706  -1.15403  -1.09685  -1.06938  -0.88057
 Alpha  occ. eigenvalues --   -0.68618  -0.57516  -0.55017  -0.54096  -0.47730
 Alpha  occ. eigenvalues --   -0.46976  -0.46595  -0.45451  -0.45061  -0.42324
 Alpha  occ. eigenvalues --   -0.36133  -0.32533  -0.27710
 Alpha virt. eigenvalues --   -0.21333  -0.19758  -0.16291  -0.15441  -0.14264
 Alpha virt. eigenvalues --   -0.12625  -0.11989  -0.10583  -0.10037  -0.09316
 Alpha virt. eigenvalues --   -0.08135  -0.07650  -0.07576  -0.06736  -0.06004

 Mulliken atomic charges:
              1
     1  O   -0.632410
     2  O   -0.626418
     3  O   -0.737895
     4  O   -0.625804
     5  P    0.702378
     6  Ca   0.913799
     7  Ca   0.594880
     8  Ca   1.411470
 Sum of Mulliken charges=   1.00000

 Dipole moment (field-independent basis, Debye):
    X=     3.3861    Y=     2.1866    Z=     0.0032  Tot=     4.0308
 Quadrupole moment (field-independent basis, Debye-Ang):
   XX=   -48.5072   YY=   -58.6207   ZZ=   -80.4007
   XY=     0.2306   XZ=    -0.0096   YZ=    -0.0033

 Normal termination of Gaussian 03 at Fri Jun 12 17:44:30 2015.
