 Gaussian 03, Revision E.01,
 Gaussian 03:  EM64T-G03RevE.01 11-Sep-2007

 ----------------------------------------------------
 # b3lyp/6-31+G(d,p) int=ultrafine pop=(ReadRadii,MK)
 ----------------------------------------------------

 -------------------------------------
 Ca3PO4_207.mol2c_plusQ.z51417.zip.xyz
 -------------------------------------
 Symbolic Z-matrix:
 Charge =  1 Multiplicity = 1

                         Standard orientation:
 ---------------------------------------------------------------------
 Center     Atomic     Atomic              Coordinates (Angstroms)
 Number     Number      Type              X           Y           Z
 ---------------------------------------------------------------------
    1          8             0       -2.665410   -0.000242    0.135030
    2          8             0       -1.914290   -0.000049   -1.241520
    3          8             0        1.036934    1.321154    0.102600
    4          8             0        1.037796   -1.321276    0.100990
    5         15             0        0.932610   -0.000686    1.272750
    6         20             0        2.732760    0.000621   -0.633870
    7         20             0       -1.214843   -1.717136    0.020180
    8         20             0       -1.215387    1.717194    0.020290
 ---------------------------------------------------------------------

 SCF Done:  E(RB+HF-LYP) =  -2674.87506979     A.U. after   10 cycles

 The electronic state is 1-A.
 Alpha  occ. eigenvalues -- -145.54268-145.47999-145.47991 -77.19273 -19.21438
 Alpha  occ. eigenvalues --  -19.21412 -19.21067 -19.21058 -15.61067 -15.54865
 Alpha  occ. eigenvalues --  -15.54858 -12.74290 -12.74222 -12.74221 -12.68105
 Alpha  occ. eigenvalues --  -12.68097 -12.68065 -12.68058 -12.67947 -12.67939
 Alpha  occ. eigenvalues --   -6.65473  -4.81971  -4.81714  -4.81053  -1.98042
 Alpha  occ. eigenvalues --   -1.92132  -1.92079  -1.25716  -1.25445  -1.25207
 Alpha  occ. eigenvalues --   -1.20874  -1.19865  -1.19777  -1.19552  -1.19545
 Alpha  occ. eigenvalues --   -1.19045  -1.03837  -1.02406  -0.98924  -0.84868
 Alpha  occ. eigenvalues --   -0.62500  -0.47220  -0.46773  -0.45020  -0.44339
 Alpha  occ. eigenvalues --   -0.43466  -0.41720  -0.41644  -0.37153  -0.36898
 Alpha  occ. eigenvalues --   -0.31992  -0.30079  -0.25944
 Alpha virt. eigenvalues --   -0.21894  -0.16791  -0.16513  -0.13552  -0.12576
 Alpha virt. eigenvalues --   -0.11118  -0.09710  -0.09304  -0.08112  -0.08039
 Alpha virt. eigenvalues --   -0.07025  -0.06878  -0.06369  -0.05856  -0.05177

 Mulliken atomic charges:
              1
     1  O   -0.659566
     2  O   -0.645085
     3  O   -0.822431
     4  O   -0.822027
     5  P   -0.354555
     6  Ca   1.432910
     7  Ca   1.435186
     8  Ca   1.435568
 Sum of Mulliken charges=   1.00000

 Dipole moment (field-independent basis, Debye):
    X=     6.8836    Y=     0.0069    Z=    -3.7313  Tot=     7.8298
 Quadrupole moment (field-independent basis, Debye-Ang):
   XX=   -44.9098   YY=   -37.8871   ZZ=   -77.2448
   XY=     0.0050   XZ=   -23.2521   YZ=    -0.0074

 Normal termination of Gaussian 03 at Fri Jun 12 17:41:53 2015.
