 Gaussian 03, Revision E.01,
 Gaussian 03:  EM64T-G03RevE.01 11-Sep-2007

 ----------------------------------------------------
 # b3lyp/6-31+G(d,p) int=ultrafine pop=(ReadRadii,MK)
 ----------------------------------------------------

 ------------------------------------
 Ca3PO4_32.mol2c_plusQ.z51444.zip.xyz
 ------------------------------------
 Symbolic Z-matrix:
 Charge =  1 Multiplicity = 1

                         Standard orientation:
 ---------------------------------------------------------------------
 Center     Atomic     Atomic              Coordinates (Angstroms)
 Number     Number      Type              X           Y           Z
 ---------------------------------------------------------------------
    1          8             0        1.959320   -0.874772   -0.000799
    2          8             0       -2.502220   -1.086626   -0.783169
    3          8             0       -2.501770   -1.086786    0.783501
    4          8             0       -0.384648    1.113491   -0.000189
    5         15             0        3.546630   -0.703514    0.000881
    6         20             0       -0.389151   -1.269099   -0.000469
    7         20             0       -2.625858    1.006204    0.000431
    8         20             0        1.726763    1.564408   -0.000359
 ---------------------------------------------------------------------

 SCF Done:  E(RB+HF-LYP) =  -2674.85229123     A.U. after   11 cycles

 The electronic state is 1-A.
 Alpha  occ. eigenvalues -- -145.52194-145.48093-145.46159 -77.25949 -19.30447
 Alpha  occ. eigenvalues --  -19.20529 -19.20521 -19.16977 -15.59125 -15.54955
 Alpha  occ. eigenvalues --  -15.53015 -12.72385 -12.72322 -12.72160 -12.68166
 Alpha  occ. eigenvalues --  -12.68135 -12.68065 -12.66255 -12.66212 -12.66103
 Alpha  occ. eigenvalues --   -6.72270  -4.88985  -4.88478  -4.87597  -1.96364
 Alpha  occ. eigenvalues --   -1.92244  -1.90351  -1.24264  -1.24190  -1.23092
 Alpha  occ. eigenvalues --   -1.20677  -1.19855  -1.19430  -1.18151  -1.18050
 Alpha  occ. eigenvalues --   -1.17779  -1.11743  -1.03156  -0.91743  -0.84283
 Alpha  occ. eigenvalues --   -0.68453  -0.51860  -0.50983  -0.50721  -0.44008
 Alpha  occ. eigenvalues --   -0.42386  -0.41534  -0.37601  -0.36602  -0.35802
 Alpha  occ. eigenvalues --   -0.31039  -0.30806  -0.29358
 Alpha virt. eigenvalues --   -0.25148  -0.20608  -0.17845  -0.14975  -0.13446
 Alpha virt. eigenvalues --   -0.11185  -0.11016  -0.11009  -0.09563  -0.09026
 Alpha virt. eigenvalues --   -0.08146  -0.07021  -0.06604  -0.05863  -0.05788

 Mulliken atomic charges:
              1
     1  O   -0.575653
     2  O   -0.652000
     3  O   -0.652159
     4  O   -1.321005
     5  P    0.050960
     6  Ca   1.392861
     7  Ca   1.448209
     8  Ca   1.308787
 Sum of Mulliken charges=   1.00000

 Dipole moment (field-independent basis, Debye):
    X=     3.1999    Y=    10.0533    Z=    -0.0019  Tot=    10.5503
 Quadrupole moment (field-independent basis, Debye-Ang):
   XX=   -52.0496   YY=   -51.6822   ZZ=   -72.7123
   XY=   -13.4974   XZ=    -0.0103   YZ=     0.0039

 Normal termination of Gaussian 03 at Fri Jun 12 17:43:13 2015.
