 Gaussian 03, Revision E.01,
 Gaussian 03:  EM64T-G03RevE.01 11-Sep-2007

 ----------------------------------------------------
 # b3lyp/6-31+G(d,p) int=ultrafine pop=(ReadRadii,MK)
 ----------------------------------------------------

 ------------------------------------
 Ca3PO4_52.mol2c_plusQ.z51466.zip.xyz
 ------------------------------------
 Symbolic Z-matrix:
 Charge =  1 Multiplicity = 1

                         Standard orientation:
 ---------------------------------------------------------------------
 Center     Atomic     Atomic              Coordinates (Angstroms)
 Number     Number      Type              X           Y           Z
 ---------------------------------------------------------------------
    1          8             0        3.269241    0.821400   -0.000930
    2          8             0        0.817401    1.562401    0.001690
    3          8             0        0.908890   -1.862729    0.000550
    4          8             0       -2.843280   -0.048688    0.001050
    5         15             0        2.281771    2.018430   -0.000750
    6         20             0        2.969040   -1.445410   -0.001190
    7         20             0       -4.899520    0.068353   -0.001650
    8         20             0       -0.641750   -0.325719    0.002460
 ---------------------------------------------------------------------

 SCF Done:  E(RB+HF-LYP) =  -2674.95776567     A.U. after    9 cycles

 The electronic state is 1-A.
 Alpha  occ. eigenvalues -- -145.55786-145.46549-145.38795 -77.24659 -19.22855
 Alpha  occ. eigenvalues --  -19.22446 -19.14360 -19.09015 -15.62568 -15.53475
 Alpha  occ. eigenvalues --  -15.45771 -12.75783 -12.75782 -12.75651 -12.66720
 Alpha  occ. eigenvalues --  -12.66657 -12.66530 -12.59063 -12.58950 -12.58794
 Alpha  occ. eigenvalues --   -6.70223  -4.86665  -4.86438  -4.86011  -1.99491
 Alpha  occ. eigenvalues --   -1.90753  -1.83273  -1.27020  -1.27010  -1.26116
 Alpha  occ. eigenvalues --   -1.18606  -1.18412  -1.17643  -1.11545  -1.11368
 Alpha  occ. eigenvalues --   -1.10417  -1.08366  -1.03227  -0.88243  -0.82983
 Alpha  occ. eigenvalues --   -0.62072  -0.51512  -0.47462  -0.47385  -0.40400
 Alpha  occ. eigenvalues --   -0.38616  -0.35561  -0.34740  -0.32345  -0.32232
 Alpha  occ. eigenvalues --   -0.28939  -0.27311  -0.27077
 Alpha virt. eigenvalues --   -0.23787  -0.16329  -0.14801  -0.14058  -0.13996
 Alpha virt. eigenvalues --   -0.12540  -0.09161  -0.08934  -0.07306  -0.07091
 Alpha virt. eigenvalues --   -0.06074  -0.05656  -0.05245  -0.05111  -0.04984

 Mulliken atomic charges:
              1
     1  O   -0.718325
     2  O   -0.683964
     3  O   -1.194058
     4  O   -1.148954
     5  P    0.616239
     6  Ca   1.339031
     7  Ca   1.403662
     8  Ca   1.386369
 Sum of Mulliken charges=   1.00000

 Dipole moment (field-independent basis, Debye):
    X=   -13.0159    Y=    -2.2905    Z=    -0.0145  Tot=    13.2159
 Quadrupole moment (field-independent basis, Debye-Ang):
   XX=    86.9165   YY=   -79.8946   ZZ=   -69.5719
   XY=   -24.7320   XZ=     0.0417   YZ=     0.0096

 Normal termination of Gaussian 03 at Fri Jun 12 17:44:06 2015.
