 Gaussian 03, Revision E.01,
 Gaussian 03:  EM64T-G03RevE.01 11-Sep-2007

 ----------------------------------------------------
 # b3lyp/6-31+G(d,p) int=ultrafine pop=(ReadRadii,MK)
 ----------------------------------------------------

 ------------------------------------
 Ca3PO4_14.mol2c_plusQ.z51154.zip.xyz
 ------------------------------------
 Symbolic Z-matrix:
 Charge =  1 Multiplicity = 1

                         Standard orientation:
 ---------------------------------------------------------------------
 Center     Atomic     Atomic              Coordinates (Angstroms)
 Number     Number      Type              X           Y           Z
 ---------------------------------------------------------------------
    1          8             0        0.320408   -1.443666    0.924640
    2          8             0       -1.412851    0.445897    0.921020
    3          8             0        0.001131   -0.002775   -1.712830
    4          8             0        1.091407    1.002038    0.921720
    5         15             0       -0.000723    0.002251    1.718270
    6         20             0       -0.421643    1.898777   -0.572250
    7         20             0       -1.434224   -1.315644   -0.569220
    8         20             0        1.856371   -0.585419   -0.569050
 ---------------------------------------------------------------------

 SCF Done:  E(RB+HF-LYP) =  -2675.07105367     A.U. after    8 cycles

 The electronic state is 1-A.
 Alpha  occ. eigenvalues -- -145.49645-145.49640-145.49638 -77.25058 -19.21235
 Alpha  occ. eigenvalues --  -19.21222 -19.21218 -19.15945 -15.56479 -15.56475
 Alpha  occ. eigenvalues --  -15.56474 -12.69676 -12.69674 -12.69673 -12.69653
 Alpha  occ. eigenvalues --  -12.69652 -12.69650 -12.69606 -12.69605 -12.69603
 Alpha  occ. eigenvalues --   -6.70088  -4.86437  -4.86437  -4.85900  -1.93827
 Alpha  occ. eigenvalues --   -1.93743  -1.93742  -1.22380  -1.21699  -1.21698
 Alpha  occ. eigenvalues --   -1.21309  -1.21143  -1.21068  -1.21067  -1.20646
 Alpha  occ. eigenvalues --   -1.20645  -1.06764  -1.00365  -1.00350  -0.90937
 Alpha  occ. eigenvalues --   -0.62644  -0.50532  -0.50529  -0.47964  -0.43362
 Alpha  occ. eigenvalues --   -0.43358  -0.38345  -0.38341  -0.38179  -0.36133
 Alpha  occ. eigenvalues --   -0.36131  -0.34590  -0.30862
 Alpha virt. eigenvalues --   -0.19951  -0.18028  -0.18027  -0.12556  -0.12554
 Alpha virt. eigenvalues --   -0.10894  -0.09478  -0.09478  -0.08339  -0.07773
 Alpha virt. eigenvalues --   -0.06545  -0.06115  -0.06113  -0.04766  -0.04716

 Mulliken atomic charges:
              1
     1  O   -1.032397
     2  O   -1.032423
     3  O   -1.251034
     4  O   -1.032333
     5  P    1.098155
     6  Ca   1.416592
     7  Ca   1.416645
     8  Ca   1.416796
 Sum of Mulliken charges=   1.00000

 Dipole moment (field-independent basis, Debye):
    X=     0.0007    Y=    -0.0141    Z=    -8.2252  Tot=     8.2252
 Quadrupole moment (field-independent basis, Debye-Ang):
   XX=   -40.0266   YY=   -40.0257   ZZ=   -90.0338
   XY=    -0.0085   XZ=     0.0190   YZ=    -0.0638

 Normal termination of Gaussian 03 at Fri Jun 12 17:38:24 2015.
