 Gaussian 03, Revision E.01,
 Gaussian 03:  EM64T-G03RevE.01 11-Sep-2007

 ----------------------------------------------------
 # b3lyp/6-31+G(d,p) int=ultrafine pop=(ReadRadii,MK)
 ----------------------------------------------------

 ------------------------------------
 Ca3PO4_36.mol2c_plusQ.z51448.zip.xyz
 ------------------------------------
 Symbolic Z-matrix:
 Charge =  1 Multiplicity = 1

                         Standard orientation:
 ---------------------------------------------------------------------
 Center     Atomic     Atomic              Coordinates (Angstroms)
 Number     Number      Type              X           Y           Z
 ---------------------------------------------------------------------
    1          8             0        1.208389    1.304691   -0.454080
    2          8             0       -2.167970    0.000035    0.759590
    3          8             0       -0.750670   -0.000955    1.321880
    4          8             0        1.207220   -1.304659   -0.456160
    5         15             0        1.094430    0.000922   -1.560750
    6         20             0       -1.059412   -1.691023   -0.338050
    7         20             0       -1.058428    1.692117   -0.336380
    8         20             0        1.498230   -0.001431    1.376500
 ---------------------------------------------------------------------

 SCF Done:  E(RB+HF-LYP) =  -2674.89010808     A.U. after    7 cycles

 The electronic state is 1-A.
 Alpha  occ. eigenvalues -- -145.52823-145.50768-145.50763 -77.21502 -19.26320
 Alpha  occ. eigenvalues --  -19.25939 -19.22269 -19.22269 -15.59595 -15.57618
 Alpha  occ. eigenvalues --  -15.57614 -12.72779 -12.72778 -12.72756 -12.70853
 Alpha  occ. eigenvalues --  -12.70850 -12.70802 -12.70798 -12.70721 -12.70717
 Alpha  occ. eigenvalues --   -6.67310  -4.83744  -4.83474  -4.83050  -1.96772
 Alpha  occ. eigenvalues --   -1.94813  -1.94758  -1.24749  -1.24317  -1.24229
 Alpha  occ. eigenvalues --   -1.23222  -1.22470  -1.22316  -1.22190  -1.22125
 Alpha  occ. eigenvalues --   -1.21781  -1.10228  -1.04710  -1.00707  -0.89627
 Alpha  occ. eigenvalues --   -0.63139  -0.51647  -0.49774  -0.48652  -0.48474
 Alpha  occ. eigenvalues --   -0.47617  -0.44985  -0.41624  -0.39266  -0.37726
 Alpha  occ. eigenvalues --   -0.35807  -0.34554  -0.25349
 Alpha virt. eigenvalues --   -0.20590  -0.19191  -0.18825  -0.13464  -0.13075
 Alpha virt. eigenvalues --   -0.11285  -0.11009  -0.10667  -0.09126  -0.08673
 Alpha virt. eigenvalues --   -0.08251  -0.07167  -0.06825  -0.06452  -0.05778

 Mulliken atomic charges:
              1
     1  O   -0.776021
     2  O   -0.607980
     3  O   -0.673397
     4  O   -0.776059
     5  P   -0.226182
     6  Ca   1.260107
     7  Ca   1.259693
     8  Ca   1.539838
 Sum of Mulliken charges=   1.00000

 Dipole moment (field-independent basis, Debye):
    X=    -0.9961    Y=    -0.0054    Z=     5.3935  Tot=     5.4847
 Quadrupole moment (field-independent basis, Debye-Ang):
   XX=   -67.2323   YY=   -43.8844   ZZ=   -71.1598
   XY=    -0.0144   XZ=    29.6453   YZ=     0.0051

 Normal termination of Gaussian 03 at Fri Jun 12 17:43:00 2015.
