 Gaussian 03, Revision E.01,
 Gaussian 03:  EM64T-G03RevE.01 11-Sep-2007

 ----------------------------------------------------
 # b3lyp/6-31+G(d,p) int=ultrafine pop=(ReadRadii,MK)
 ----------------------------------------------------

 -----------------------------------
 Ca3PO4_29.mol2_plusQ.z51440.zip.xyz
 -----------------------------------
 Symbolic Z-matrix:
 Charge =  1 Multiplicity = 1

                         Standard orientation:
 ---------------------------------------------------------------------
 Center     Atomic     Atomic              Coordinates (Angstroms)
 Number     Number      Type              X           Y           Z
 ---------------------------------------------------------------------
    1          8             0       -1.330050   -0.110091   -1.209658
    2          8             0       -1.331580   -0.110071    1.210092
    3          8             0       -3.424401   -0.975670   -0.000958
    4          8             0        2.874100    0.194617    0.000842
    5         15             0       -1.859251   -1.180931   -0.000258
    6         20             0        0.683700    0.013358    0.001432
    7         20             0       -2.938309    1.221160   -0.000518
    8         20             0        4.933820    0.051666   -0.000848
 ---------------------------------------------------------------------

 SCF Done:  E(RB+HF-LYP) =  -2674.95077018     A.U. after   12 cycles

 The electronic state is 1-A.
 Alpha  occ. eigenvalues -- -145.58032-145.48732-145.43381 -77.20173 -19.16628
 Alpha  occ. eigenvalues --  -19.16546 -19.16523 -19.15906 -15.64806 -15.55573
 Alpha  occ. eigenvalues --  -15.50340 -12.78024 -12.78024 -12.77889 -12.68749
 Alpha  occ. eigenvalues --  -12.68746 -12.68730 -12.63626 -12.63542 -12.63351
 Alpha  occ. eigenvalues --   -6.65529  -4.81870  -4.81835  -4.81436  -2.01695
 Alpha  occ. eigenvalues --   -1.92687  -1.87785  -1.29213  -1.29209  -1.28307
 Alpha  occ. eigenvalues --   -1.20688  -1.19957  -1.19941  -1.15975  -1.15426
 Alpha  occ. eigenvalues --   -1.15157  -1.02573  -0.96281  -0.94457  -0.90591
 Alpha  occ. eigenvalues --   -0.57129  -0.44721  -0.44328  -0.44095  -0.38772
 Alpha  occ. eigenvalues --   -0.37159  -0.36858  -0.34748  -0.34687  -0.33799
 Alpha  occ. eigenvalues --   -0.32393  -0.30302  -0.27698
 Alpha virt. eigenvalues --   -0.25426  -0.17569  -0.15547  -0.15469  -0.14358
 Alpha virt. eigenvalues --   -0.11711  -0.09048  -0.09014  -0.07990  -0.07034
 Alpha virt. eigenvalues --   -0.06541  -0.06099  -0.05610  -0.05540  -0.05102

 Mulliken atomic charges:
              1
     1  O   -0.911029
     2  O   -0.910850
     3  O   -0.879477
     4  O   -1.161592
     5  P    0.831651
     6  Ca   1.397384
     7  Ca   1.148353
     8  Ca   1.485560
 Sum of Mulliken charges=   1.00000

 Dipole moment (field-independent basis, Debye):
    X=    20.6596    Y=     9.0376    Z=    -0.0038  Tot=    22.5499
 Quadrupole moment (field-independent basis, Debye-Ang):
   XX=    75.6755   YY=   -64.0016   ZZ=   -83.8850
   XY=   -32.9935   XZ=    -0.0292   YZ=    -0.0081

 Normal termination of Gaussian 03 at Fri Jun 12 17:43:02 2015.
