 Gaussian 03, Revision E.01,
 Gaussian 03:  EM64T-G03RevE.01 11-Sep-2007

 ----------------------------------------------------
 # b3lyp/6-31+G(d,p) int=ultrafine pop=(ReadRadii,MK)
 ----------------------------------------------------

 -------------------------------------
 Ca3PO4_213.mol2c_plusQ.z51424.zip.xyz
 -------------------------------------
 Symbolic Z-matrix:
 Charge =  1 Multiplicity = 1

                         Standard orientation:
 ---------------------------------------------------------------------
 Center     Atomic     Atomic              Coordinates (Angstroms)
 Number     Number      Type              X           Y           Z
 ---------------------------------------------------------------------
    1          8             0        4.406921    1.236230   -0.088101
    2          8             0        4.414571   -1.232840    0.084229
    3          8             0       -3.585819   -0.777491   -0.135651
    4          8             0       -3.584289    0.776809    0.138319
    5         15             0        5.346391    0.004400   -0.004981
    6         20             0       -1.436369   -0.003011    0.004659
    7         20             0        2.401831   -0.004150    0.004289
    8         20             0       -5.635809    0.002778   -0.004731
 ---------------------------------------------------------------------

 SCF Done:  E(RB+HF-LYP) =  -2674.85179501     A.U. after   14 cycles

 The electronic state is 1-A.
 Alpha  occ. eigenvalues -- -145.56515-145.49234-145.48337 -77.24519 -19.25947
 Alpha  occ. eigenvalues --  -19.25922 -19.22473 -19.22468 -15.63358 -15.56245
 Alpha  occ. eigenvalues --  -15.55381 -12.76597 -12.76537 -12.76459 -12.69485
 Alpha  occ. eigenvalues --  -12.69418 -12.69299 -12.68610 -12.68565 -12.68419
 Alpha  occ. eigenvalues --   -6.70267  -4.86699  -4.86450  -4.86063  -2.00315
 Alpha  occ. eigenvalues --   -1.93483  -1.92692  -1.27911  -1.27879  -1.27617
 Alpha  occ. eigenvalues --   -1.21278  -1.20900  -1.20884  -1.20440  -1.20256
 Alpha  occ. eigenvalues --   -1.20228  -1.08898  -1.08308  -1.02836  -0.89796
 Alpha  occ. eigenvalues --   -0.61180  -0.49950  -0.49142  -0.48513  -0.48150
 Alpha  occ. eigenvalues --   -0.47588  -0.46296  -0.39571  -0.38126  -0.38095
 Alpha  occ. eigenvalues --   -0.36140  -0.33940  -0.26810
 Alpha virt. eigenvalues --   -0.24360  -0.15621  -0.15054  -0.14875  -0.14535
 Alpha virt. eigenvalues --   -0.13889  -0.13521  -0.11830  -0.10770  -0.09044
 Alpha virt. eigenvalues --   -0.07975  -0.07690  -0.06382  -0.05679  -0.05505

 Mulliken atomic charges:
              1
     1  O   -0.630031
     2  O   -0.630177
     3  O   -0.652425
     4  O   -0.651900
     5  P    0.388822
     6  Ca   0.938447
     7  Ca   0.653324
     8  Ca   1.583940
 Sum of Mulliken charges=   1.00000

 Dipole moment (field-independent basis, Debye):
    X=   -20.9704    Y=    -0.0001    Z=    -0.0053  Tot=    20.9704
 Quadrupole moment (field-independent basis, Debye-Ang):
   XX=    54.8192   YY=   -90.5658   ZZ=   -75.8728
   XY=    -0.1082   XZ=     0.2041   YZ=     0.1081

 Normal termination of Gaussian 03 at Fri Jun 12 17:41:56 2015.
