 Gaussian 03, Revision E.01,
 Gaussian 03:  EM64T-G03RevE.01 11-Sep-2007

 ----------------------------------------------------
 # b3lyp/6-31+G(d,p) int=ultrafine pop=(ReadRadii,MK)
 ----------------------------------------------------

 ------------------------------------
 Ca3PO4_115.mol2_plusQ.z51116.zip.xyz
 ------------------------------------
 Symbolic Z-matrix:
 Charge =  1 Multiplicity = 1

                         Standard orientation:
 ---------------------------------------------------------------------
 Center     Atomic     Atomic              Coordinates (Angstroms)
 Number     Number      Type              X           Y           Z
 ---------------------------------------------------------------------
    1          8             0        0.596939   -0.889150   -0.775961
    2          8             0       -1.872680    0.865980   -0.000671
    3          8             0        0.596429   -0.887150    0.778819
    4          8             0        2.577510    1.467859   -0.001091
    5         15             0       -3.442490    0.569340   -0.001701
    6         20             0       -1.443731   -1.520720    0.000719
    7         20             0        2.840239   -0.636771   -0.001361
    8         20             0        0.426080    1.507470    0.001479
 ---------------------------------------------------------------------

 SCF Done:  E(RB+HF-LYP) =  -2674.84103887     A.U. after   14 cycles

 The electronic state is 1-A.
 Alpha  occ. eigenvalues -- -145.53215-145.48008-145.46494 -77.26565 -19.30843
 Alpha  occ. eigenvalues --  -19.27723 -19.27686 -19.10322 -15.60106 -15.54854
 Alpha  occ. eigenvalues --  -15.53356 -12.73332 -12.73316 -12.73186 -12.68072
 Alpha  occ. eigenvalues --  -12.68036 -12.67956 -12.66610 -12.66571 -12.66406
 Alpha  occ. eigenvalues --   -6.72856  -4.89583  -4.89065  -4.88176  -1.97303
 Alpha  occ. eigenvalues --   -1.92067  -1.90657  -1.25290  -1.24949  -1.24848
 Alpha  occ. eigenvalues --   -1.20301  -1.19723  -1.19166  -1.18520  -1.18404
 Alpha  occ. eigenvalues --   -1.17699  -1.12089  -1.10825  -0.91226  -0.84507
 Alpha  occ. eigenvalues --   -0.68940  -0.52742  -0.51374  -0.51257  -0.51148
 Alpha  occ. eigenvalues --   -0.50084  -0.49068  -0.38794  -0.36629  -0.31416
 Alpha  occ. eigenvalues --   -0.30127  -0.28515  -0.28471
 Alpha virt. eigenvalues --   -0.25519  -0.20355  -0.17999  -0.15269  -0.15149
 Alpha virt. eigenvalues --   -0.11421  -0.11123  -0.11078  -0.09247  -0.09088
 Alpha virt. eigenvalues --   -0.08669  -0.08342  -0.07026  -0.06914  -0.06029

 Mulliken atomic charges:
              1
     1  O   -0.699087
     2  O   -0.575602
     3  O   -0.698268
     4  O   -1.121346
     5  P    0.045636
     6  Ca   1.330591
     7  Ca   1.362906
     8  Ca   1.355170
 Sum of Mulliken charges=   1.00000

 Dipole moment (field-independent basis, Debye):
    X=    -1.8480    Y=    -8.9639    Z=     0.0089  Tot=     9.1525
 Quadrupole moment (field-independent basis, Debye-Ang):
   XX=   -52.9209   YY=   -56.1339   ZZ=   -72.7508
   XY=   -14.1539   XZ=    -0.0187   YZ=     0.0292

 Normal termination of Gaussian 03 at Fri Jun 12 17:36:51 2015.
