 Gaussian 03, Revision E.01,
 Gaussian 03:  EM64T-G03RevE.01 11-Sep-2007

 ----------------------------------------------------
 # b3lyp/6-31+G(d,p) int=ultrafine pop=(ReadRadii,MK)
 ----------------------------------------------------

 -------------------------------------
 Ca3PO4_183.mol2c_plusQ.z51191.zip.xyz
 -------------------------------------
 Symbolic Z-matrix:
 Charge =  1 Multiplicity = 1

                         Standard orientation:
 ---------------------------------------------------------------------
 Center     Atomic     Atomic              Coordinates (Angstroms)
 Number     Number      Type              X           Y           Z
 ---------------------------------------------------------------------
    1          8             0       -1.188584   -0.938398    1.361251
    2          8             0       -0.212256    1.494547    1.363921
    3          8             0        0.000610   -0.000831   -0.687819
    4          8             0        1.406880   -0.567381    1.359881
    5         15             0        0.001880   -0.003431    1.064761
    6         20             0       -0.341535    2.355182   -0.715549
    7         20             0       -1.874503   -1.467683   -0.719809
    8         20             0        2.211968   -0.880100   -0.722109
 ---------------------------------------------------------------------

 SCF Done:  E(RB+HF-LYP) =  -2675.01212966     A.U. after   10 cycles

 The electronic state is 1-A.
 Alpha  occ. eigenvalues -- -145.53745-145.53740-145.53715 -77.32318 -19.26067
 Alpha  occ. eigenvalues --  -19.22410 -19.22398 -19.22377 -15.60638 -15.60633
 Alpha  occ. eigenvalues --  -15.60610 -12.73865 -12.73860 -12.73836 -12.73800
 Alpha  occ. eigenvalues --  -12.73795 -12.73771 -12.73745 -12.73740 -12.73716
 Alpha  occ. eigenvalues --   -6.76688  -4.93230  -4.92932  -4.92932  -1.97699
 Alpha  occ. eigenvalues --   -1.97692  -1.97670  -1.25656  -1.25317  -1.25305
 Alpha  occ. eigenvalues --   -1.25266  -1.25028  -1.25013  -1.24991  -1.24912
 Alpha  occ. eigenvalues --   -1.24895  -1.13300  -1.04682  -1.04673  -1.04452
 Alpha  occ. eigenvalues --   -0.63472  -0.55544  -0.53614  -0.53609  -0.47936
 Alpha  occ. eigenvalues --   -0.47928  -0.43439  -0.43435  -0.42225  -0.40370
 Alpha  occ. eigenvalues --   -0.40358  -0.37473  -0.26992
 Alpha virt. eigenvalues --   -0.22186  -0.22162  -0.15991  -0.15978  -0.14865
 Alpha virt. eigenvalues --   -0.12675  -0.11783  -0.11766  -0.11231  -0.08623
 Alpha virt. eigenvalues --   -0.08605  -0.07723  -0.05591  -0.05586  -0.05429

 Mulliken atomic charges:
              1
     1  O   -0.773287
     2  O   -0.773615
     3  O   -1.112373
     4  O   -0.773668
     5  P    1.353748
     6  Ca   1.024651
     7  Ca   1.026032
     8  Ca   1.028512
 Sum of Mulliken charges=   1.00000

 Dipole moment (field-independent basis, Debye):
    X=     0.0119    Y=     0.0075    Z=   -10.6814  Tot=    10.6814
 Quadrupole moment (field-independent basis, Debye-Ang):
   XX=   -46.4381   YY=   -46.6035   ZZ=   -93.5721
   XY=    -0.0110   XZ=    -0.0906   YZ=     0.1176

 Normal termination of Gaussian 03 at Fri Jun 12 17:40:35 2015.
