 Gaussian 03, Revision E.01,
 Gaussian 03:  EM64T-G03RevE.01 11-Sep-2007

 ----------------------------------------------------
 # b3lyp/6-31+G(d,p) int=ultrafine pop=(ReadRadii,MK)
 ----------------------------------------------------

 -------------------------------------
 Ca3PO4_203.mol2c_plusQ.z51413.zip.xyz
 -------------------------------------
 Symbolic Z-matrix:
 Charge =  1 Multiplicity = 1

                         Standard orientation:
 ---------------------------------------------------------------------
 Center     Atomic     Atomic              Coordinates (Angstroms)
 Number     Number      Type              X           Y           Z
 ---------------------------------------------------------------------
    1          8             0       -0.640633    1.369769    1.362500
    2          8             0       -0.863319   -1.242317    1.362080
    3          8             0        0.000430   -0.000059   -0.687810
    4          8             0        1.510293   -0.129127    1.360510
    5         15             0        0.001921   -0.000488    1.064770
    6         20             0       -1.010546    2.155031   -0.717920
    7         20             0       -1.365350   -1.949760   -0.718470
    8         20             0        2.371746   -0.204211   -0.721100
 ---------------------------------------------------------------------

 SCF Done:  E(RB+HF-LYP) =  -2675.01213257     A.U. after   10 cycles

 The electronic state is 1-A.
 Alpha  occ. eigenvalues -- -145.53754-145.53730-145.53715 -77.32307 -19.26055
 Alpha  occ. eigenvalues --  -19.22402 -19.22379 -19.22375 -15.60646 -15.60624
 Alpha  occ. eigenvalues --  -15.60609 -12.73873 -12.73851 -12.73836 -12.73808
 Alpha  occ. eigenvalues --  -12.73786 -12.73771 -12.73753 -12.73731 -12.73715
 Alpha  occ. eigenvalues --   -6.76678  -4.93221  -4.92922  -4.92922  -1.97704
 Alpha  occ. eigenvalues --   -1.97684  -1.97669  -1.25655  -1.25320  -1.25301
 Alpha  occ. eigenvalues --   -1.25265  -1.25029  -1.25010  -1.24990  -1.24911
 Alpha  occ. eigenvalues --   -1.24893  -1.13292  -1.04674  -1.04665  -1.04444
 Alpha  occ. eigenvalues --   -0.63464  -0.55537  -0.53607  -0.53602  -0.47928
 Alpha  occ. eigenvalues --   -0.47922  -0.43431  -0.43429  -0.42218  -0.40362
 Alpha  occ. eigenvalues --   -0.40352  -0.37467  -0.26991
 Alpha virt. eigenvalues --   -0.22181  -0.22165  -0.15986  -0.15983  -0.14864
 Alpha virt. eigenvalues --   -0.12674  -0.11780  -0.11767  -0.11231  -0.08619
 Alpha virt. eigenvalues --   -0.08608  -0.07722  -0.05591  -0.05586  -0.05428

 Mulliken atomic charges:
              1
     1  O   -0.773504
     2  O   -0.773506
     3  O   -1.112360
     4  O   -0.773586
     5  P    1.354243
     6  Ca   1.027042
     7  Ca   1.025766
     8  Ca   1.025906
 Sum of Mulliken charges=   1.00000

 Dipole moment (field-independent basis, Debye):
    X=    -0.0343    Y=     0.0208    Z=   -10.6771  Tot=    10.6772
 Quadrupole moment (field-independent basis, Debye-Ang):
   XX=   -46.5198   YY=   -46.5458   ZZ=   -93.5799
   XY=    -0.0082   XZ=    -0.0344   YZ=    -0.0065

 Normal termination of Gaussian 03 at Fri Jun 12 17:41:51 2015.
