 Gaussian 03, Revision E.01,
 Gaussian 03:  EM64T-G03RevE.01 11-Sep-2007

 ----------------------------------------------------
 # b3lyp/6-31+G(d,p) int=ultrafine pop=(ReadRadii,MK)
 ----------------------------------------------------

 -------------------------------------
 Ca3PO4_142.mol2c_plusQ.z51146.zip.xyz
 -------------------------------------
 Symbolic Z-matrix:
 Charge =  1 Multiplicity = 1

                         Standard orientation:
 ---------------------------------------------------------------------
 Center     Atomic     Atomic              Coordinates (Angstroms)
 Number     Number      Type              X           Y           Z
 ---------------------------------------------------------------------
    1          8             0       -1.384186    0.531267    0.920681
    2          8             0        0.002051   -0.002030   -1.712119
    3          8             0        0.232028   -1.460403    0.924291
    4          8             0        1.148777    0.933823    0.922261
    5         15             0       -0.001401    0.003079    1.717921
    6         20             0       -0.305351    1.919948   -0.572929
    7         20             0        1.818324   -0.696767   -0.567869
    8         20             0       -1.511391   -1.226552   -0.569689
 ---------------------------------------------------------------------

 SCF Done:  E(RB+HF-LYP) =  -2675.07103891     A.U. after    8 cycles

 The electronic state is 1-A.
 Alpha  occ. eigenvalues -- -145.49649-145.49644-145.49617 -77.25051 -19.21262
 Alpha  occ. eigenvalues --  -19.21223 -19.21181 -19.15937 -15.56482 -15.56479
 Alpha  occ. eigenvalues --  -15.56453 -12.69680 -12.69679 -12.69658 -12.69656
 Alpha  occ. eigenvalues --  -12.69652 -12.69629 -12.69611 -12.69609 -12.69582
 Alpha  occ. eigenvalues --   -6.70081  -4.86430  -4.86430  -4.85893  -1.93825
 Alpha  occ. eigenvalues --   -1.93746  -1.93730  -1.22377  -1.21698  -1.21692
 Alpha  occ. eigenvalues --   -1.21306  -1.21139  -1.21067  -1.21061  -1.20649
 Alpha  occ. eigenvalues --   -1.20634  -1.06766  -1.00379  -1.00338  -0.90934
 Alpha  occ. eigenvalues --   -0.62640  -0.50536  -0.50525  -0.47964  -0.43362
 Alpha  occ. eigenvalues --   -0.43357  -0.38356  -0.38330  -0.38177  -0.36133
 Alpha  occ. eigenvalues --   -0.36127  -0.34586  -0.30853
 Alpha virt. eigenvalues --   -0.19949  -0.18032  -0.18021  -0.12555  -0.12552
 Alpha virt. eigenvalues --   -0.10893  -0.09480  -0.09474  -0.08339  -0.07772
 Alpha virt. eigenvalues --   -0.06545  -0.06115  -0.06112  -0.04764  -0.04715

 Mulliken atomic charges:
              1
     1  O   -1.032241
     2  O   -1.250918
     3  O   -1.032054
     4  O   -1.032393
     5  P    1.098039
     6  Ca   1.415977
     7  Ca   1.416796
     8  Ca   1.416796
 Sum of Mulliken charges=   1.00000

 Dipole moment (field-independent basis, Debye):
    X=     0.0124    Y=    -0.0255    Z=    -8.2289  Tot=     8.2289
 Quadrupole moment (field-independent basis, Debye-Ang):
   XX=   -40.0045   YY=   -40.0563   ZZ=   -90.0281
   XY=     0.0140   XZ=     0.0509   YZ=    -0.0618

 Normal termination of Gaussian 03 at Fri Jun 12 17:37:45 2015.
