 Gaussian 03, Revision E.01,
 Gaussian 03:  EM64T-G03RevE.01 11-Sep-2007

 ----------------------------------------------------
 # b3lyp/6-31+G(d,p) int=ultrafine pop=(ReadRadii,MK)
 ----------------------------------------------------

 -------------------------------------
 Ca3PO4_107.mol2c_plusQ.z51107.zip.xyz
 -------------------------------------
 Symbolic Z-matrix:
 Charge =  1 Multiplicity = 1

                         Standard orientation:
 ---------------------------------------------------------------------
 Center     Atomic     Atomic              Coordinates (Angstroms)
 Number     Number      Type              X           Y           Z
 ---------------------------------------------------------------------
    1          8             0       -2.238188   -0.003376    1.331651
    2          8             0        2.692582    0.003007   -0.333309
    3          8             0       -0.584295   -1.253731   -0.108919
    4          8             0       -0.589732    1.253859   -0.110059
    5         15             0       -0.690948   -0.000822    1.033991
    6         20             0        1.626756   -1.816726   -0.076649
    7         20             0        1.620367    1.819044   -0.075499
    8         20             0       -2.441058   -0.001606   -0.935089
 ---------------------------------------------------------------------

 SCF Done:  E(RB+HF-LYP) =  -2674.99967860     A.U. after    8 cycles

 The electronic state is 1-A.
 Alpha  occ. eigenvalues -- -145.52904-145.48524-145.48505 -77.24514 -19.21586
 Alpha  occ. eigenvalues --  -19.21533 -19.18916 -19.12186 -15.59701 -15.55427
 Alpha  occ. eigenvalues --  -15.55408 -12.72883 -12.72879 -12.72867 -12.68680
 Alpha  occ. eigenvalues --  -12.68660 -12.68611 -12.68592 -12.68486 -12.68467
 Alpha  occ. eigenvalues --   -6.69830  -4.86210  -4.86133  -4.85711  -1.96743
 Alpha  occ. eigenvalues --   -1.92688  -1.92656  -1.24719  -1.24005  -1.23969
 Alpha  occ. eigenvalues --   -1.20595  -1.20522  -1.20409  -1.20152  -1.19794
 Alpha  occ. eigenvalues --   -1.19301  -1.06954  -0.99983  -0.99925  -0.86570
 Alpha  occ. eigenvalues --   -0.61883  -0.49713  -0.49549  -0.48424  -0.42893
 Alpha  occ. eigenvalues --   -0.42357  -0.38151  -0.37919  -0.34578  -0.32848
 Alpha  occ. eigenvalues --   -0.32540  -0.30663  -0.30261
 Alpha virt. eigenvalues --   -0.20428  -0.18305  -0.17396  -0.12506  -0.11991
 Alpha virt. eigenvalues --   -0.10385  -0.10048  -0.08960  -0.08367  -0.08011
 Alpha virt. eigenvalues --   -0.07399  -0.06923  -0.06468  -0.05556  -0.05311

 Mulliken atomic charges:
              1
     1  O   -0.880316
     2  O   -1.183429
     3  O   -0.957240
     4  O   -0.957467
     5  P    0.749746
     6  Ca   1.424183
     7  Ca   1.423980
     8  Ca   1.380543
 Sum of Mulliken charges=   1.00000

 Dipole moment (field-independent basis, Debye):
    X=    -1.5184    Y=    -0.0127    Z=    -7.4947  Tot=     7.6470
 Quadrupole moment (field-independent basis, Debye-Ang):
   XX=   -53.0993   YY=   -32.3149   ZZ=   -70.0901
   XY=    -0.0779   XZ=    28.1172   YZ=     0.0490

 Normal termination of Gaussian 03 at Fri Jun 12 17:35:57 2015.
