 Gaussian 03, Revision E.01,
 Gaussian 03:  EM64T-G03RevE.01 11-Sep-2007

 ----------------------------------------------------
 # b3lyp/6-31+G(d,p) int=ultrafine pop=(ReadRadii,MK)
 ----------------------------------------------------

 -------------------------------------
 Ca3PO4_100.mol2c_plusQ.z51100.zip.xyz
 -------------------------------------
 Symbolic Z-matrix:
 Charge =  1 Multiplicity = 1

                         Standard orientation:
 ---------------------------------------------------------------------
 Center     Atomic     Atomic              Coordinates (Angstroms)
 Number     Number      Type              X           Y           Z
 ---------------------------------------------------------------------
    1          8             0        1.514416   -0.047092    1.360919
    2          8             0       -0.795652   -1.286837    1.362109
    3          8             0        0.000358   -0.000041   -0.687651
    4          8             0       -0.714339    1.333497    1.362189
    5         15             0        0.001348   -0.000131    1.064859
    6         20             0       -1.255117   -2.022205   -0.718631
    7         20             0       -1.126859    2.096377   -0.718481
    8         20             0        2.379051   -0.073885   -0.720561
 ---------------------------------------------------------------------

 SCF Done:  E(RB+HF-LYP) =  -2675.01212919     A.U. after   10 cycles

 The electronic state is 1-A.
 Alpha  occ. eigenvalues -- -145.53750-145.53725-145.53723 -77.32308 -19.26076
 Alpha  occ. eigenvalues --  -19.22381 -19.22378 -19.22372 -15.60642 -15.60619
 Alpha  occ. eigenvalues --  -15.60617 -12.73869 -12.73846 -12.73844 -12.73804
 Alpha  occ. eigenvalues --  -12.73781 -12.73779 -12.73749 -12.73726 -12.73724
 Alpha  occ. eigenvalues --   -6.76679  -4.93221  -4.92922  -4.92922  -1.97701
 Alpha  occ. eigenvalues --   -1.97682  -1.97676  -1.25656  -1.25318  -1.25302
 Alpha  occ. eigenvalues --   -1.25268  -1.25027  -1.25013  -1.24990  -1.24909
 Alpha  occ. eigenvalues --   -1.24896  -1.13292  -1.04667  -1.04665  -1.04452
 Alpha  occ. eigenvalues --   -0.63464  -0.55539  -0.53606  -0.53603  -0.47931
 Alpha  occ. eigenvalues --   -0.47928  -0.43427  -0.43426  -0.42219  -0.40359
 Alpha  occ. eigenvalues --   -0.40355  -0.37463  -0.26992
 Alpha virt. eigenvalues --   -0.22179  -0.22168  -0.15986  -0.15985  -0.14865
 Alpha virt. eigenvalues --   -0.12675  -0.11778  -0.11769  -0.11231  -0.08618
 Alpha virt. eigenvalues --   -0.08610  -0.07722  -0.05590  -0.05587  -0.05428

 Mulliken atomic charges:
              1
     1  O   -0.773395
     2  O   -0.773520
     3  O   -1.112619
     4  O   -0.773434
     5  P    1.354696
     6  Ca   1.026544
     7  Ca   1.026345
     8  Ca   1.025383
 Sum of Mulliken charges=   1.00000

 Dipole moment (field-independent basis, Debye):
    X=    -0.0309    Y=    -0.0029    Z=   -10.6742  Tot=    10.6742
 Quadrupole moment (field-independent basis, Debye-Ang):
   XX=   -46.5329   YY=   -46.5422   ZZ=   -93.5816
   XY=     0.0052   XZ=    -0.0127   YZ=     0.0092

 Normal termination of Gaussian 03 at Fri Jun 12 17:36:25 2015.
