 Gaussian 03, Revision E.01,
 Gaussian 03:  EM64T-G03RevE.01 11-Sep-2007

 ----------------------------------------------------
 # b3lyp/6-31+G(d,p) int=ultrafine pop=(ReadRadii,MK)
 ----------------------------------------------------

 ------------------------------------
 Ca3PO4_111.mol2_plusQ.z51112.zip.xyz
 ------------------------------------
 Symbolic Z-matrix:
 Charge =  1 Multiplicity = 1

                         Standard orientation:
 ---------------------------------------------------------------------
 Center     Atomic     Atomic              Coordinates (Angstroms)
 Number     Number      Type              X           Y           Z
 ---------------------------------------------------------------------
    1          8             0       -0.514499    1.259119   -0.368731
    2          8             0       -1.562411    0.000690    1.541019
    3          8             0        1.159299   -0.000083    1.080269
    4          8             0       -0.514862   -1.259981   -0.367701
    5         15             0       -0.341491   -0.000241    0.618399
    6         20             0        1.748012    1.878986   -0.314701
    7         20             0        1.749187   -1.878304   -0.314761
    8         20             0       -2.668091   -0.000398   -0.588281
 ---------------------------------------------------------------------

 SCF Done:  E(RB+HF-LYP) =  -2675.01472160     A.U. after   10 cycles

 The electronic state is 1-A.
 Alpha  occ. eigenvalues -- -145.56110-145.52121-145.52120 -77.32376 -19.25577
 Alpha  occ. eigenvalues --  -19.23663 -19.23661 -19.21970 -15.62816 -15.59015
 Alpha  occ. eigenvalues --  -15.59014 -12.76018 -12.76014 -12.75987 -12.72227
 Alpha  occ. eigenvalues --  -12.72225 -12.72182 -12.72180 -12.72129 -12.72129
 Alpha  occ. eigenvalues --   -6.76989  -4.93388  -4.93333  -4.93225  -1.99594
 Alpha  occ. eigenvalues --   -1.96054  -1.96038  -1.27399  -1.26837  -1.26800
 Alpha  occ. eigenvalues --   -1.24005  -1.23529  -1.23500  -1.23363  -1.23335
 Alpha  occ. eigenvalues --   -1.23262  -1.14372  -1.06806  -1.04373  -1.04067
 Alpha  occ. eigenvalues --   -0.63886  -0.56016  -0.54691  -0.53568  -0.48206
 Alpha  occ. eigenvalues --   -0.47161  -0.45080  -0.43977  -0.43209  -0.40900
 Alpha  occ. eigenvalues --   -0.39794  -0.37074  -0.25494
 Alpha virt. eigenvalues --   -0.22274  -0.19989  -0.14503  -0.13477  -0.12911
 Alpha virt. eigenvalues --   -0.12375  -0.11236  -0.11128  -0.10052  -0.08867
 Alpha virt. eigenvalues --   -0.07459  -0.07053  -0.06013  -0.05445  -0.05243

 Mulliken atomic charges:
              1
     1  O   -0.929270
     2  O   -0.741421
     3  O   -0.820147
     4  O   -0.928973
     5  P    1.369250
     6  Ca   0.886469
     7  Ca   0.886319
     8  Ca   1.277773
 Sum of Mulliken charges=   1.00000

 Dipole moment (field-independent basis, Debye):
    X=    -1.9886    Y=    -0.0017    Z=    -5.7334  Tot=     6.0685
 Quadrupole moment (field-independent basis, Debye-Ang):
   XX=   -34.4551   YY=   -52.8869   ZZ=   -88.8552
   XY=    -0.0010   XZ=    13.1196   YZ=     0.0015

 Normal termination of Gaussian 03 at Fri Jun 12 17:36:25 2015.
