 Gaussian 03, Revision E.01,
 Gaussian 03:  EM64T-G03RevE.01 11-Sep-2007

 ----------------------------------------------------
 # b3lyp/6-31+G(d,p) int=ultrafine pop=(ReadRadii,MK)
 ----------------------------------------------------

 -------------------------------------
 Ca3PO4_205.mol2c_plusQ.z51415.zip.xyz
 -------------------------------------
 Symbolic Z-matrix:
 Charge =  1 Multiplicity = 1

                         Standard orientation:
 ---------------------------------------------------------------------
 Center     Atomic     Atomic              Coordinates (Angstroms)
 Number     Number      Type              X           Y           Z
 ---------------------------------------------------------------------
    1          8             0       -2.069689   -1.275071    0.000760
    2          8             0       -2.068672    1.275529   -0.000440
    3          8             0        1.779912   -1.885666   -0.000260
    4          8             0        1.780557    1.884994    0.000390
    5         15             0       -2.935910    0.000558    0.000710
    6         20             0       -0.200577   -2.593209   -0.000640
    7         20             0       -0.199583    2.593391   -0.000600
    8         20             0        2.833250   -0.000515    0.000530
 ---------------------------------------------------------------------

 SCF Done:  E(RB+HF-LYP) =  -2674.99692720     A.U. after    7 cycles

 The electronic state is 1-A.
 Alpha  occ. eigenvalues -- -145.49209-145.49207-145.42872 -77.29677 -19.27528
 Alpha  occ. eigenvalues --  -19.27525 -19.11837 -19.11833 -15.56115 -15.56113
 Alpha  occ. eigenvalues --  -15.49904 -12.69368 -12.69366 -12.69324 -12.69322
 Alpha  occ. eigenvalues --  -12.69148 -12.69146 -12.63161 -12.63108 -12.62900
 Alpha  occ. eigenvalues --   -6.75165  -4.91611  -4.91389  -4.90946  -1.93356
 Alpha  occ. eigenvalues --   -1.93355  -1.87395  -1.21222  -1.21221  -1.21127
 Alpha  occ. eigenvalues --   -1.21058  -1.20285  -1.20241  -1.15436  -1.15128
 Alpha  occ. eigenvalues --   -1.14224  -1.13367  -1.08166  -0.86237  -0.85663
 Alpha  occ. eigenvalues --   -0.67429  -0.56991  -0.52244  -0.52200  -0.45474
 Alpha  occ. eigenvalues --   -0.43646  -0.40112  -0.33054  -0.31445  -0.30729
 Alpha  occ. eigenvalues --   -0.30324  -0.30164  -0.29709
 Alpha virt. eigenvalues --   -0.19440  -0.18402  -0.17739  -0.14275  -0.11281
 Alpha virt. eigenvalues --   -0.10199  -0.10179  -0.08906  -0.08323  -0.07853
 Alpha virt. eigenvalues --   -0.07521  -0.06905  -0.06052  -0.05562  -0.04928

 Mulliken atomic charges:
              1
     1  O   -0.701436
     2  O   -0.701419
     3  O   -1.243810
     4  O   -1.243879
     5  P    0.646130
     6  Ca   1.442852
     7  Ca   1.442874
     8  Ca   1.358689
 Sum of Mulliken charges=   1.00000

 Dipole moment (field-independent basis, Debye):
    X=    -0.8672    Y=     0.0016    Z=    -0.0052  Tot=     0.8672
 Quadrupole moment (field-independent basis, Debye-Ang):
   XX=   -57.2193   YY=   -26.5323   ZZ=   -69.0836
   XY=     0.0028   XZ=     0.0122   YZ=    -0.0016

 Normal termination of Gaussian 03 at Fri Jun 12 17:41:21 2015.
