 Gaussian 03, Revision E.01,
 Gaussian 03:  EM64T-G03RevE.01 11-Sep-2007

 ----------------------------------------------------
 # b3lyp/6-31+G(d,p) int=ultrafine pop=(ReadRadii,MK)
 ----------------------------------------------------

 -------------------------------------
 Ca3PO4_129.mol2c_plusQ.z51131.zip.xyz
 -------------------------------------
 Symbolic Z-matrix:
 Charge =  1 Multiplicity = 1

                         Standard orientation:
 ---------------------------------------------------------------------
 Center     Atomic     Atomic              Coordinates (Angstroms)
 Number     Number      Type              X           Y           Z
 ---------------------------------------------------------------------
    1          8             0       -2.776089   -0.523389    0.419239
    2          8             0       -2.299111   -0.070787   -0.919291
    3          8             0       -1.657190   -0.267765    1.373329
    4          8             0        1.331241   -0.815767   -0.241391
    5         15             0        1.246057    0.881683   -0.928271
    6         20             0       -1.340656    1.714495    0.206509
    7         20             0       -0.752866   -1.656003   -0.249711
    8         20             0        3.319439   -0.048671    0.486649
 ---------------------------------------------------------------------

 SCF Done:  E(RB+HF-LYP) =  -2674.73729407     A.U. after   10 cycles

 The electronic state is 1-A.
 Alpha  occ. eigenvalues -- -145.53549-145.50105-145.49797 -77.15714 -19.34822
 Alpha  occ. eigenvalues --  -19.25819 -19.25819 -19.21430 -15.60459 -15.56992
 Alpha  occ. eigenvalues --  -15.56621 -12.73674 -12.73632 -12.73560 -12.70192
 Alpha  occ. eigenvalues --  -12.70169 -12.70113 -12.69850 -12.69821 -12.69721
 Alpha  occ. eigenvalues --   -6.62301  -4.78832  -4.78289  -4.78019  -1.97498
 Alpha  occ. eigenvalues --   -1.94174  -1.93827  -1.25039  -1.24763  -1.24704
 Alpha  occ. eigenvalues --   -1.24653  -1.21641  -1.21533  -1.21397  -1.21288
 Alpha  occ. eigenvalues --   -1.21145  -1.17323  -1.01699  -0.99570  -0.86185
 Alpha  occ. eigenvalues --   -0.61561  -0.55741  -0.53570  -0.53244  -0.44412
 Alpha  occ. eigenvalues --   -0.42543  -0.41698  -0.41394  -0.39674  -0.37755
 Alpha  occ. eigenvalues --   -0.33657  -0.29162  -0.26237
 Alpha virt. eigenvalues --   -0.21871  -0.17841  -0.17489  -0.13765  -0.13417
 Alpha virt. eigenvalues --   -0.12059  -0.11137  -0.10381  -0.09880  -0.09440
 Alpha virt. eigenvalues --   -0.07963  -0.07222  -0.06560  -0.06109  -0.05813

 Mulliken atomic charges:
              1
     1  O   -0.072552
     2  O   -0.618572
     3  O   -0.608382
     4  O   -0.856640
     5  P   -0.709047
     6  Ca   1.209390
     7  Ca   1.482317
     8  Ca   1.173486
 Sum of Mulliken charges=   1.00000

 Dipole moment (field-independent basis, Debye):
    X=     7.1786    Y=    -1.8151    Z=     3.3372  Tot=     8.1218
 Quadrupole moment (field-independent basis, Debye-Ang):
   XX=   -37.9004   YY=   -41.3835   ZZ=   -84.9455
   XY=   -14.0571   XZ=    13.0630   YZ=     6.8925

 Normal termination of Gaussian 03 at Fri Jun 12 17:37:27 2015.
