 Gaussian 03, Revision E.01,
 Gaussian 03:  EM64T-G03RevE.01 11-Sep-2007

 ----------------------------------------------------
 # b3lyp/6-31+G(d,p) int=ultrafine pop=(ReadRadii,MK)
 ----------------------------------------------------

 -----------------------------------
 Ca3PO4_76.mol2_plusQ.z51492.zip.xyz
 -----------------------------------
 Symbolic Z-matrix:
 Charge =  1 Multiplicity = 1

                         Standard orientation:
 ---------------------------------------------------------------------
 Center     Atomic     Atomic              Coordinates (Angstroms)
 Number     Number      Type              X           Y           Z
 ---------------------------------------------------------------------
    1          8             0       -1.441050    0.342724    0.921921
    2          8             0        1.015963    1.077898    0.921931
    3          8             0        0.424279   -1.417960    0.922911
    4          8             0        0.000394   -0.001305   -1.711869
    5         15             0       -0.000601    0.001963    1.718041
    6         20             0        1.893645   -0.449680   -0.569259
    7         20             0       -1.335430   -1.415871   -0.569279
    8         20             0       -0.557599    1.863536   -0.571949
 ---------------------------------------------------------------------

 SCF Done:  E(RB+HF-LYP) =  -2675.07105730     A.U. after    8 cycles

 The electronic state is 1-A.
 Alpha  occ. eigenvalues -- -145.49638-145.49632-145.49631 -77.25055 -19.21253
 Alpha  occ. eigenvalues --  -19.21251 -19.21161 -19.15934 -15.56471 -15.56468
 Alpha  occ. eigenvalues --  -15.56467 -12.69668 -12.69667 -12.69666 -12.69646
 Alpha  occ. eigenvalues --  -12.69645 -12.69643 -12.69598 -12.69598 -12.69596
 Alpha  occ. eigenvalues --   -6.70085  -4.86433  -4.86433  -4.85897  -1.93821
 Alpha  occ. eigenvalues --   -1.93736  -1.93736  -1.22374  -1.21693  -1.21692
 Alpha  occ. eigenvalues --   -1.21303  -1.21136  -1.21062  -1.21061  -1.20639
 Alpha  occ. eigenvalues --   -1.20639  -1.06754  -1.00375  -1.00328  -0.90932
 Alpha  occ. eigenvalues --   -0.62641  -0.50530  -0.50518  -0.47957  -0.43356
 Alpha  occ. eigenvalues --   -0.43352  -0.38354  -0.38327  -0.38176  -0.36131
 Alpha  occ. eigenvalues --   -0.36126  -0.34585  -0.30859
 Alpha virt. eigenvalues --   -0.19948  -0.18025  -0.18025  -0.12553  -0.12552
 Alpha virt. eigenvalues --   -0.10892  -0.09477  -0.09477  -0.08338  -0.07770
 Alpha virt. eigenvalues --   -0.06545  -0.06114  -0.06113  -0.04765  -0.04717

 Mulliken atomic charges:
              1
     1  O   -1.032351
     2  O   -1.032394
     3  O   -1.031905
     4  O   -1.250983
     5  P    1.097912
     6  Ca   1.416640
     7  Ca   1.416633
     8  Ca   1.416449
 Sum of Mulliken charges=   1.00000

 Dipole moment (field-independent basis, Debye):
    X=     0.0038    Y=    -0.0128    Z=    -8.2280  Tot=     8.2280
 Quadrupole moment (field-independent basis, Debye-Ang):
   XX=   -40.0297   YY=   -40.0407   ZZ=   -90.0149
   XY=     0.0036   XZ=     0.0129   YZ=    -0.0427

 Normal termination of Gaussian 03 at Fri Jun 12 17:45:26 2015.
