 Gaussian 03, Revision E.01,
 Gaussian 03:  EM64T-G03RevE.01 11-Sep-2007

 ----------------------------------------------------
 # b3lyp/6-31+G(d,p) int=ultrafine pop=(ReadRadii,MK)
 ----------------------------------------------------

 ------------------------------------
 Ca3PO4_98.mol2c_plusQ.z51516.zip.xyz
 ------------------------------------
 Symbolic Z-matrix:
 Charge =  1 Multiplicity = 1

                         Standard orientation:
 ---------------------------------------------------------------------
 Center     Atomic     Atomic              Coordinates (Angstroms)
 Number     Number      Type              X           Y           Z
 ---------------------------------------------------------------------
    1          8             0       -0.949541    0.400640    0.831752
    2          8             0       -0.984929   -1.428060   -0.855248
    3          8             0        1.008041   -1.422808    0.853802
    4          8             0        0.950089    0.418072   -0.819828
    5         15             0        0.006200   -0.610479    0.002912
    6         20             0        2.916270   -0.546876   -0.012278
    7         20             0       -2.905700   -0.571643    0.006182
    8         20             0       -0.024684    2.389241   -0.000278
 ---------------------------------------------------------------------

 SCF Done:  E(RB+HF-LYP) =  -2675.02390104     A.U. after   10 cycles

 The electronic state is 1-A.
 Alpha  occ. eigenvalues -- -145.53462-145.53320-145.51721 -77.32262 -19.24226
 Alpha  occ. eigenvalues --  -19.24201 -19.22158 -19.22086 -15.60348 -15.60209
 Alpha  occ. eigenvalues --  -15.58646 -12.73576 -12.73509 -12.73462 -12.73436
 Alpha  occ. eigenvalues --  -12.73370 -12.73322 -12.71862 -12.71803 -12.71754
 Alpha  occ. eigenvalues --   -6.76627  -4.93055  -4.92968  -4.92892  -1.97375
 Alpha  occ. eigenvalues --   -1.97240  -1.95724  -1.25072  -1.24967  -1.24841
 Alpha  occ. eigenvalues --   -1.24784  -1.24634  -1.24501  -1.23279  -1.23217
 Alpha  occ. eigenvalues --   -1.23036  -1.13454  -1.05320  -1.04513  -1.03724
 Alpha  occ. eigenvalues --   -0.63578  -0.55117  -0.54389  -0.53420  -0.48077
 Alpha  occ. eigenvalues --   -0.45553  -0.45062  -0.43201  -0.42772  -0.40365
 Alpha  occ. eigenvalues --   -0.39061  -0.37942  -0.25280
 Alpha virt. eigenvalues --   -0.22084  -0.20679  -0.15425  -0.13346  -0.13278
 Alpha virt. eigenvalues --   -0.12179  -0.11584  -0.11419  -0.10357  -0.08710
 Alpha virt. eigenvalues --   -0.07706  -0.07170  -0.06126  -0.05498  -0.05270

 Mulliken atomic charges:
              1
     1  O   -0.996510
     2  O   -0.807025
     3  O   -0.807818
     4  O   -0.997530
     5  P    1.777642
     6  Ca   0.905496
     7  Ca   0.905667
     8  Ca   1.020077
 Sum of Mulliken charges=   1.00000

 Dipole moment (field-independent basis, Debye):
    X=    -0.0990    Y=     3.1401    Z=    -0.0266  Tot=     3.1417
 Quadrupole moment (field-independent basis, Debye-Ang):
   XX=   -10.9765   YY=   -69.7433   ZZ=   -88.7184
   XY=     0.3598   XZ=    -2.2638   YZ=     0.0581

 Normal termination of Gaussian 03 at Fri Jun 12 17:46:48 2015.
