 Gaussian 03, Revision E.01,
 Gaussian 03:  EM64T-G03RevE.01 11-Sep-2007

 ----------------------------------------------------
 # b3lyp/6-31+G(d,p) int=ultrafine pop=(ReadRadii,MK)
 ----------------------------------------------------

 -------------------------------------
 Ca3PO4_164.mol2c_plusQ.z51170.zip.xyz
 -------------------------------------
 Symbolic Z-matrix:
 Charge =  1 Multiplicity = 1

                         Standard orientation:
 ---------------------------------------------------------------------
 Center     Atomic     Atomic              Coordinates (Angstroms)
 Number     Number      Type              X           Y           Z
 ---------------------------------------------------------------------
    1          8             0        2.070311    1.274188   -0.000839
    2          8             0       -1.779738    1.885731    0.000841
    3          8             0        2.068999   -1.275852    0.001281
    4          8             0       -1.781402   -1.884539   -0.000989
    5         15             0        2.936750   -0.001243    0.000081
    6         20             0        0.201202    2.592319   -0.000249
    7         20             0       -2.834010    0.000972    0.000201
    8         20             0        0.198978   -2.592171   -0.000129
 ---------------------------------------------------------------------

 SCF Done:  E(RB+HF-LYP) =  -2674.99692656     A.U. after    7 cycles

 The electronic state is 1-A.
 Alpha  occ. eigenvalues -- -145.49211-145.49205-145.42875 -77.29681 -19.27532
 Alpha  occ. eigenvalues --  -19.27524 -19.11845 -19.11828 -15.56117 -15.56111
 Alpha  occ. eigenvalues --  -15.49907 -12.69370 -12.69364 -12.69326 -12.69320
 Alpha  occ. eigenvalues --  -12.69150 -12.69144 -12.63163 -12.63111 -12.62903
 Alpha  occ. eigenvalues --   -6.75169  -4.91615  -4.91393  -4.90949  -1.93359
 Alpha  occ. eigenvalues --   -1.93353  -1.87397  -1.21224  -1.21219  -1.21127
 Alpha  occ. eigenvalues --   -1.21058  -1.20286  -1.20241  -1.15438  -1.15130
 Alpha  occ. eigenvalues --   -1.14227  -1.13372  -1.08167  -0.86238  -0.85664
 Alpha  occ. eigenvalues --   -0.67432  -0.56993  -0.52249  -0.52205  -0.45475
 Alpha  occ. eigenvalues --   -0.43645  -0.40120  -0.33054  -0.31446  -0.30731
 Alpha  occ. eigenvalues --   -0.30325  -0.30164  -0.29710
 Alpha virt. eigenvalues --   -0.19444  -0.18402  -0.17737  -0.14276  -0.11282
 Alpha virt. eigenvalues --   -0.10201  -0.10178  -0.08906  -0.08323  -0.07854
 Alpha virt. eigenvalues --   -0.07521  -0.06906  -0.06053  -0.05562  -0.04928

 Mulliken atomic charges:
              1
     1  O   -0.701504
     2  O   -1.243721
     3  O   -0.701433
     4  O   -1.243922
     5  P    0.646360
     6  Ca   1.442686
     7  Ca   1.358766
     8  Ca   1.442768
 Sum of Mulliken charges=   1.00000

 Dipole moment (field-independent basis, Debye):
    X=     0.8673    Y=     0.0021    Z=    -0.0012  Tot=     0.8673
 Quadrupole moment (field-independent basis, Debye-Ang):
   XX=   -57.1923   YY=   -26.5985   ZZ=   -69.0832
   XY=     0.0090   XZ=    -0.0078   YZ=    -0.0146

 Normal termination of Gaussian 03 at Fri Jun 12 17:38:43 2015.
