 Gaussian 03, Revision E.01,
 Gaussian 03:  EM64T-G03RevE.01 11-Sep-2007

 ----------------------------------------------------
 # b3lyp/6-31+G(d,p) int=ultrafine pop=(ReadRadii,MK)
 ----------------------------------------------------

 -------------------------------------
 Ca3PO4_199.mol2c_plusQ.z51409.zip.xyz
 -------------------------------------
 Symbolic Z-matrix:
 Charge =  1 Multiplicity = 1

                         Standard orientation:
 ---------------------------------------------------------------------
 Center     Atomic     Atomic              Coordinates (Angstroms)
 Number     Number      Type              X           Y           Z
 ---------------------------------------------------------------------
    1          8             0       -1.915110   -0.000233   -1.241039
    2          8             0        1.037211   -1.320901    0.101911
    3          8             0        1.037749    1.321759    0.101591
    4          8             0       -2.664720   -0.000024    0.136331
    5         15             0        0.932850    0.000739    1.272571
    6         20             0       -1.214951    1.717227    0.019591
    7         20             0       -1.215159   -1.717343    0.020241
    8         20             0        2.732420   -0.000680   -0.633779
 ---------------------------------------------------------------------

 SCF Done:  E(RB+HF-LYP) =  -2674.87506998     A.U. after   10 cycles

 The electronic state is 1-A.
 Alpha  occ. eigenvalues -- -145.54257-145.47999-145.47996 -77.19273 -19.21428
 Alpha  occ. eigenvalues --  -19.21428 -19.21072 -19.21064 -15.61057 -15.54865
 Alpha  occ. eigenvalues --  -15.54862 -12.74280 -12.74212 -12.74211 -12.68105
 Alpha  occ. eigenvalues --  -12.68102 -12.68065 -12.68063 -12.67947 -12.67944
 Alpha  occ. eigenvalues --   -6.65473  -4.81971  -4.81714  -4.81053  -1.98033
 Alpha  occ. eigenvalues --   -1.92134  -1.92082  -1.25710  -1.25437  -1.25199
 Alpha  occ. eigenvalues --   -1.20878  -1.19867  -1.19780  -1.19553  -1.19549
 Alpha  occ. eigenvalues --   -1.19048  -1.03842  -1.02408  -0.98928  -0.84874
 Alpha  occ. eigenvalues --   -0.62502  -0.47223  -0.46774  -0.45023  -0.44345
 Alpha  occ. eigenvalues --   -0.43472  -0.41726  -0.41648  -0.37158  -0.36898
 Alpha  occ. eigenvalues --   -0.32000  -0.30085  -0.25944
 Alpha virt. eigenvalues --   -0.21889  -0.16793  -0.16514  -0.13551  -0.12574
 Alpha virt. eigenvalues --   -0.11118  -0.09709  -0.09303  -0.08112  -0.08039
 Alpha virt. eigenvalues --   -0.07027  -0.06879  -0.06370  -0.05856  -0.05177

 Mulliken atomic charges:
              1
     1  O   -0.645187
     2  O   -0.822352
     3  O   -0.822108
     4  O   -0.659484
     5  P   -0.354530
     6  Ca   1.435387
     7  Ca   1.435556
     8  Ca   1.432718
 Sum of Mulliken charges=   1.00000

 Dipole moment (field-independent basis, Debye):
    X=     6.8771    Y=    -0.0076    Z=    -3.7382  Tot=     7.8274
 Quadrupole moment (field-independent basis, Debye-Ang):
   XX=   -44.9294   YY=   -37.8797   ZZ=   -77.2404
   XY=    -0.0153   XZ=   -23.2318   YZ=    -0.0063

 Normal termination of Gaussian 03 at Fri Jun 12 17:41:21 2015.
