 Gaussian 03, Revision E.01,
 Gaussian 03:  EM64T-G03RevE.01 11-Sep-2007

 ----------------------------------------------------
 # b3lyp/6-31+G(d,p) int=ultrafine pop=(ReadRadii,MK)
 ----------------------------------------------------

 ---------------------------------------
 Ca3PO4_105.mol2ccc_plusQ.z51105.zip.xyz
 ---------------------------------------
 Symbolic Z-matrix:
 Charge =  1 Multiplicity = 1

                         Standard orientation:
 ---------------------------------------------------------------------
 Center     Atomic     Atomic              Coordinates (Angstroms)
 Number     Number      Type              X           Y           Z
 ---------------------------------------------------------------------
    1          8             0        2.941831    0.670457   -0.002422
    2          8             0       -2.838271   -1.416238   -0.000812
    3          8             0        1.670079   -1.507532    0.004058
    4          8             0       -0.829979    0.944381    0.000618
    5         15             0        3.072859   -0.876773   -0.002802
    6         20             0       -0.670481   -1.459999    0.001278
    7         20             0        1.072722    1.951319    0.001798
    8         20             0       -3.084349    0.689833   -0.001552
 ---------------------------------------------------------------------

 SCF Done:  E(RB+HF-LYP) =  -2675.00578579     A.U. after   10 cycles

 The electronic state is 1-A.
 Alpha  occ. eigenvalues -- -145.53281-145.47066-145.44482 -77.29387 -19.27564
 Alpha  occ. eigenvalues --  -19.27174 -19.17716 -19.10346 -15.60173 -15.53966
 Alpha  occ. eigenvalues --  -15.51440 -12.73429 -12.73377 -12.73217 -12.67206
 Alpha  occ. eigenvalues --  -12.67124 -12.67044 -12.64716 -12.64626 -12.64471
 Alpha  occ. eigenvalues --   -6.74936  -4.91376  -4.91152  -4.90715  -1.97372
 Alpha  occ. eigenvalues --   -1.91262  -1.88889  -1.25224  -1.25070  -1.24243
 Alpha  occ. eigenvalues --   -1.19129  -1.18802  -1.18221  -1.16994  -1.16383
 Alpha  occ. eigenvalues --   -1.16268  -1.13225  -1.07832  -0.92328  -0.84310
 Alpha  occ. eigenvalues --   -0.66967  -0.56434  -0.52376  -0.52167  -0.45128
 Alpha  occ. eigenvalues --   -0.43231  -0.40534  -0.38452  -0.37478  -0.36314
 Alpha  occ. eigenvalues --   -0.29843  -0.28433  -0.28135
 Alpha virt. eigenvalues --   -0.21392  -0.19361  -0.18291  -0.14043  -0.13465
 Alpha virt. eigenvalues --   -0.11754  -0.10629  -0.10445  -0.08679  -0.08512
 Alpha virt. eigenvalues --   -0.07769  -0.07166  -0.06432  -0.06120  -0.05565

 Mulliken atomic charges:
              1
     1  O   -0.720994
     2  O   -1.119589
     3  O   -0.683233
     4  O   -1.346072
     5  P    0.671435
     6  Ca   1.348029
     7  Ca   1.524483
     8  Ca   1.325942
 Sum of Mulliken charges=   1.00000

 Dipole moment (field-independent basis, Debye):
    X=    -0.3959    Y=    11.4682    Z=     0.0053  Tot=    11.4751
 Quadrupole moment (field-independent basis, Debye-Ang):
   XX=   -58.9857   YY=   -46.8280   ZZ=   -69.1173
   XY=   -17.4452   XZ=     0.0336   YZ=     0.0205

 Normal termination of Gaussian 03 at Fri Jun 12 17:36:06 2015.
