 Gaussian 03, Revision E.01,
 Gaussian 03:  EM64T-G03RevE.01 11-Sep-2007

 ----------------------------------------------------
 # b3lyp/6-31+G(d,p) int=ultrafine pop=(ReadRadii,MK)
 ----------------------------------------------------

 ------------------------------------
 Ca3PO4_7.mol2cc_plusQ.z51496.zip.xyz
 ------------------------------------
 Symbolic Z-matrix:
 Charge =  1 Multiplicity = 1

                         Standard orientation:
 ---------------------------------------------------------------------
 Center     Atomic     Atomic              Coordinates (Angstroms)
 Number     Number      Type              X           Y           Z
 ---------------------------------------------------------------------
    1          8             0       -2.353567    1.143960    0.001690
    2          8             0        1.044633    0.184300    0.781790
    3          8             0       -2.057967   -1.369150   -0.001390
    4          8             0        1.044783    0.183870   -0.781390
    5         15             0       -3.087227   -0.218480    0.000590
    6         20             0        3.295443    0.021500    0.000450
    7         20             0       -0.229387    1.952570   -0.000990
    8         20             0        0.178213   -1.867400   -0.000180
 ---------------------------------------------------------------------

 SCF Done:  E(RB+HF-LYP) =  -2674.91819227     A.U. after   13 cycles

 The electronic state is 1-A.
 Alpha  occ. eigenvalues -- -145.53249-145.51962-145.50880 -77.29672 -19.29926
 Alpha  occ. eigenvalues --  -19.29897 -19.27465 -19.27374 -15.60124 -15.58858
 Alpha  occ. eigenvalues --  -15.57848 -12.73342 -12.73307 -12.73238 -12.72076
 Alpha  occ. eigenvalues --  -12.72024 -12.71983 -12.71041 -12.71012 -12.70949
 Alpha  occ. eigenvalues --   -6.75175  -4.91618  -4.91400  -4.90949  -1.97243
 Alpha  occ. eigenvalues --   -1.96001  -1.94928  -1.25613  -1.24829  -1.24746
 Alpha  occ. eigenvalues --   -1.23730  -1.23593  -1.23456  -1.22371  -1.22321
 Alpha  occ. eigenvalues --   -1.22282  -1.13589  -1.12931  -1.08060  -0.93690
 Alpha  occ. eigenvalues --   -0.67264  -0.56834  -0.53263  -0.52931  -0.52440
 Alpha  occ. eigenvalues --   -0.52212  -0.51593  -0.45276  -0.43338  -0.40614
 Alpha  occ. eigenvalues --   -0.40466  -0.39822  -0.25623
 Alpha virt. eigenvalues --   -0.20922  -0.19468  -0.19417  -0.17024  -0.14329
 Alpha virt. eigenvalues --   -0.12188  -0.12123  -0.11700  -0.10939  -0.10723
 Alpha virt. eigenvalues --   -0.08668  -0.08076  -0.07727  -0.07171  -0.06155

 Mulliken atomic charges:
              1
     1  O   -0.704628
     2  O   -0.567196
     3  O   -0.695218
     4  O   -0.566546
     5  P    0.625851
     6  Ca   0.707576
     7  Ca   1.231257
     8  Ca   0.968903
 Sum of Mulliken charges=   1.00000

 Dipole moment (field-independent basis, Debye):
    X=     3.4410    Y=     2.1419    Z=    -0.0079  Tot=     4.0532
 Quadrupole moment (field-independent basis, Debye-Ang):
   XX=   -68.7827   YY=   -52.8700   ZZ=   -81.2006
   XY=     0.7920   XZ=     0.0061   YZ=    -0.0212

 Normal termination of Gaussian 03 at Fri Jun 12 17:46:10 2015.
