 Gaussian 03, Revision E.01,
 Gaussian 03:  EM64T-G03RevE.01 11-Sep-2007

 ----------------------------------------------------
 # b3lyp/6-31+G(d,p) int=ultrafine pop=(ReadRadii,MK)
 ----------------------------------------------------

 -------------------------------------
 Ca3PO4_211.mol2_plusQc.z51696.zip.xyz
 -------------------------------------
 Symbolic Z-matrix:
 Charge =  1 Multiplicity = 1

                         Standard orientation:
 ---------------------------------------------------------------------
 Center     Atomic     Atomic              Coordinates (Angstroms)
 Number     Number      Type              X           Y           Z
 ---------------------------------------------------------------------
    1          8             0        2.511360   -1.238669   -0.001079
    2          8             0        4.879749    0.001132   -0.000299
    3          8             0        2.509969    1.237791    0.000991
    4          8             0       -1.732921   -0.000111    0.000511
    5         15             0        3.410439    0.000022   -0.000149
    6         20             0        0.493479   -0.000910    0.000441
    7         20             0       -3.159960   -1.719262    0.000111
    8         20             0       -3.158612    1.720098   -0.000489
 ---------------------------------------------------------------------

 SCF Done:  E(RB+HF-LYP) =  -2674.95386011     A.U. after    7 cycles

 The electronic state is 1-A.
 Alpha  occ. eigenvalues -- -145.53946-145.53945-145.50911 -77.32704 -19.26882
 Alpha  occ. eigenvalues --  -19.26880 -19.25505 -19.21922 -15.60923 -15.60921
 Alpha  occ. eigenvalues --  -15.57854 -12.74115 -12.74113 -12.74112 -12.74112
 Alpha  occ. eigenvalues --  -12.73993 -12.73992 -12.71128 -12.71069 -12.70872
 Alpha  occ. eigenvalues --   -6.78054  -4.94651  -4.94169  -4.94123  -1.98043
 Alpha  occ. eigenvalues --   -1.98000  -1.95205  -1.25695  -1.25527  -1.25479
 Alpha  occ. eigenvalues --   -1.25410  -1.25299  -1.24739  -1.23220  -1.22937
 Alpha  occ. eigenvalues --   -1.22797  -1.15521  -1.08314  -1.07914  -0.96735
 Alpha  occ. eigenvalues --   -0.63598  -0.55340  -0.53924  -0.53542  -0.47878
 Alpha  occ. eigenvalues --   -0.44280  -0.44134  -0.43207  -0.42816  -0.42393
 Alpha  occ. eigenvalues --   -0.40419  -0.40289  -0.29157
 Alpha virt. eigenvalues --   -0.22869  -0.19570  -0.16707  -0.16682  -0.14664
 Alpha virt. eigenvalues --   -0.14293  -0.13991  -0.12002  -0.11617  -0.11061
 Alpha virt. eigenvalues --   -0.09717  -0.08639  -0.07995  -0.06345  -0.06105

 Mulliken atomic charges:
              1
     1  O   -0.697550
     2  O   -0.617538
     3  O   -0.697638
     4  O   -1.102635
     5  P    1.270246
     6  Ca   1.544620
     7  Ca   0.650169
     8  Ca   0.650325
 Sum of Mulliken charges=   1.00000

 Dipole moment (field-independent basis, Debye):
    X=   -16.4576    Y=    -0.0021    Z=     0.0009  Tot=    16.4576
 Quadrupole moment (field-independent basis, Debye-Ang):
   XX=   -67.3610   YY=   -57.8011   ZZ=   -77.3690
   XY=    -0.0047   XZ=     0.0055   YZ=    -0.0144

 Normal termination of Gaussian 03 at Fri Jun 12 17:41:22 2015.
