 Gaussian 03, Revision E.01,
 Gaussian 03:  EM64T-G03RevE.01 11-Sep-2007

 ----------------------------------------------------
 # b3lyp/6-31+G(d,p) int=ultrafine pop=(ReadRadii,MK)
 ----------------------------------------------------

 -------------------------------------
 Ca3PO4_147.mol2c_plusQ.z51151.zip.xyz
 -------------------------------------
 Symbolic Z-matrix:
 Charge =  1 Multiplicity = 1

                         Standard orientation:
 ---------------------------------------------------------------------
 Center     Atomic     Atomic              Coordinates (Angstroms)
 Number     Number      Type              X           Y           Z
 ---------------------------------------------------------------------
    1          8             0       -1.118359   -0.449439   -0.776919
    2          8             0       -1.125319   -0.449059    0.780881
    3          8             0        1.565201    0.978161    0.012891
    4          8             0        3.069421   -0.980119   -0.013969
    5         15             0        3.076241    0.558481   -0.009089
    6         20             0       -0.661269    1.788231    0.003551
    7         20             0       -3.380179   -0.365180   -0.008349
    8         20             0        0.777891   -1.481729    0.010461
 ---------------------------------------------------------------------

 SCF Done:  E(RB+HF-LYP) =  -2674.91831038     A.U. after   12 cycles

 The electronic state is 1-A.
 Alpha  occ. eigenvalues -- -145.53444-145.51415-145.50727 -77.31500 -19.29650
 Alpha  occ. eigenvalues --  -19.29219 -19.29181 -19.28811 -15.60298 -15.58304
 Alpha  occ. eigenvalues --  -15.57680 -12.73529 -12.73525 -12.73371 -12.71511
 Alpha  occ. eigenvalues --  -12.71468 -12.71432 -12.70875 -12.70848 -12.70782
 Alpha  occ. eigenvalues --   -6.77092  -4.93523  -4.93299  -4.92875  -1.97450
 Alpha  occ. eigenvalues --   -1.95432  -1.94743  -1.25582  -1.25275  -1.25110
 Alpha  occ. eigenvalues --   -1.23250  -1.22950  -1.22833  -1.22133  -1.22099
 Alpha  occ. eigenvalues --   -1.22077  -1.15586  -1.12510  -1.09596  -0.92882
 Alpha  occ. eigenvalues --   -0.68771  -0.57749  -0.55039  -0.54192  -0.52603
 Alpha  occ. eigenvalues --   -0.52055  -0.51158  -0.46640  -0.45186  -0.42505
 Alpha  occ. eigenvalues --   -0.40162  -0.38631  -0.25347
 Alpha virt. eigenvalues --   -0.21375  -0.19584  -0.19321  -0.16491  -0.13939
 Alpha virt. eigenvalues --   -0.12070  -0.12031  -0.11080  -0.10768  -0.10642
 Alpha virt. eigenvalues --   -0.09523  -0.07754  -0.07582  -0.07281  -0.06561

 Mulliken atomic charges:
              1
     1  O   -0.565406
     2  O   -0.565977
     3  O   -0.728415
     4  O   -0.641587
     5  P    0.645275
     6  Ca   0.817226
     7  Ca   0.678520
     8  Ca   1.360363
 Sum of Mulliken charges=   1.00000

 Dipole moment (field-independent basis, Debye):
    X=    -1.6457    Y=    -2.6745    Z=     0.0448  Tot=     3.1406
 Quadrupole moment (field-independent basis, Debye-Ang):
   XX=   -66.1881   YY=   -58.6492   ZZ=   -81.1597
   XY=     6.3273   XZ=     0.1703   YZ=    -0.1267

 Normal termination of Gaussian 03 at Fri Jun 12 17:38:19 2015.
