 Gaussian 03, Revision E.01,
 Gaussian 03:  EM64T-G03RevE.01 11-Sep-2007

 ----------------------------------------------------
 # b3lyp/6-31+G(d,p) int=ultrafine pop=(ReadRadii,MK)
 ----------------------------------------------------

 ------------------------------------
 Ca3PO4_78.mol2c_plusQ.z51494.zip.xyz
 ------------------------------------
 Symbolic Z-matrix:
 Charge =  1 Multiplicity = 1

                         Standard orientation:
 ---------------------------------------------------------------------
 Center     Atomic     Atomic              Coordinates (Angstroms)
 Number     Number      Type              X           Y           Z
 ---------------------------------------------------------------------
    1          8             0       -0.895682    1.179729    0.921940
    2          8             0        1.468534    0.184780    0.922870
    3          8             0        0.001297    0.000164   -1.711870
    4          8             0       -0.575508   -1.364847    0.921940
    5         15             0       -0.001985   -0.000256    1.718040
    6         20             0        1.176394   -1.550519   -0.569290
    7         20             0        0.755611    1.793620   -0.569290
    8         20             0       -1.929973   -0.242839   -0.571900
 ---------------------------------------------------------------------

 SCF Done:  E(RB+HF-LYP) =  -2675.07103669     A.U. after    8 cycles

 The electronic state is 1-A.
 Alpha  occ. eigenvalues -- -145.49637-145.49632-145.49631 -77.25055 -19.21252
 Alpha  occ. eigenvalues --  -19.21251 -19.21161 -19.15932 -15.56471 -15.56467
 Alpha  occ. eigenvalues --  -15.56467 -12.69667 -12.69666 -12.69666 -12.69645
 Alpha  occ. eigenvalues --  -12.69645 -12.69642 -12.69597 -12.69597 -12.69596
 Alpha  occ. eigenvalues --   -6.70084  -4.86433  -4.86433  -4.85897  -1.93820
 Alpha  occ. eigenvalues --   -1.93735  -1.93735  -1.22373  -1.21692  -1.21691
 Alpha  occ. eigenvalues --   -1.21302  -1.21136  -1.21062  -1.21060  -1.20638
 Alpha  occ. eigenvalues --   -1.20638  -1.06753  -1.00374  -1.00327  -0.90930
 Alpha  occ. eigenvalues --   -0.62641  -0.50530  -0.50518  -0.47957  -0.43355
 Alpha  occ. eigenvalues --   -0.43352  -0.38353  -0.38327  -0.38175  -0.36130
 Alpha  occ. eigenvalues --   -0.36125  -0.34584  -0.30858
 Alpha virt. eigenvalues --   -0.19948  -0.18025  -0.18024  -0.12553  -0.12551
 Alpha virt. eigenvalues --   -0.10892  -0.09477  -0.09476  -0.08337  -0.07770
 Alpha virt. eigenvalues --   -0.06545  -0.06113  -0.06113  -0.04764  -0.04716

 Mulliken atomic charges:
              1
     1  O   -1.032367
     2  O   -1.031890
     3  O   -1.250925
     4  O   -1.032358
     5  P    1.097870
     6  Ca   1.416603
     7  Ca   1.416620
     8  Ca   1.416447
 Sum of Mulliken charges=   1.00000

 Dipole moment (field-independent basis, Debye):
    X=     0.0127    Y=     0.0017    Z=    -8.2281  Tot=     8.2281
 Quadrupole moment (field-independent basis, Debye-Ang):
   XX=   -40.0424   YY=   -40.0301   ZZ=   -90.0155
   XY=    -0.0016   XZ=     0.0429   YZ=     0.0054

 Normal termination of Gaussian 03 at Fri Jun 12 17:45:41 2015.
