 Gaussian 03, Revision E.01,
 Gaussian 03:  EM64T-G03RevE.01 11-Sep-2007

 ----------------------------------------------------
 # b3lyp/6-31+G(d,p) int=ultrafine pop=(ReadRadii,MK)
 ----------------------------------------------------

 ------------------------------------
 Ca3PO4_75.mol2c_plusQ.z51491.zip.xyz
 ------------------------------------
 Symbolic Z-matrix:
 Charge =  1 Multiplicity = 1

                         Standard orientation:
 ---------------------------------------------------------------------
 Center     Atomic     Atomic              Coordinates (Angstroms)
 Number     Number      Type              X           Y           Z
 ---------------------------------------------------------------------
    1          8             0        2.384371    0.924302    0.410531
    2          8             0        0.888301    0.988807    0.323131
    3          8             0        0.212633   -1.466861    0.606561
    4          8             0       -1.426361    0.408105    0.852331
    5         15             0        0.002387   -0.088860    1.484791
    6         20             0        1.945495   -0.898607   -0.822339
    7         20             0       -1.873907   -1.466153   -0.488909
    8         20             0       -0.896955    2.089663   -0.679369
 ---------------------------------------------------------------------

 SCF Done:  E(RB+HF-LYP) =  -2674.86109921     A.U. after   12 cycles

 The electronic state is 1-A.
 Alpha  occ. eigenvalues -- -145.54059-145.52986-145.52979 -77.28674 -19.31268
 Alpha  occ. eigenvalues --  -19.25037 -19.24957 -19.24870 -15.60936 -15.59908
 Alpha  occ. eigenvalues --  -15.59850 -12.74146 -12.74110 -12.74053 -12.73115
 Alpha  occ. eigenvalues --  -12.73081 -12.73078 -12.73013 -12.73012 -12.72968
 Alpha  occ. eigenvalues --   -6.73836  -4.90263  -4.90131  -4.89547  -1.97971
 Alpha  occ. eigenvalues --   -1.97023  -1.96977  -1.25817  -1.25393  -1.25352
 Alpha  occ. eigenvalues --   -1.24930  -1.24611  -1.24517  -1.24397  -1.24388
 Alpha  occ. eigenvalues --   -1.24134  -1.15565  -1.09452  -1.04734  -0.92318
 Alpha  occ. eigenvalues --   -0.67258  -0.57001  -0.55388  -0.53940  -0.51274
 Alpha  occ. eigenvalues --   -0.48961  -0.45759  -0.44018  -0.41726  -0.37938
 Alpha  occ. eigenvalues --   -0.35438  -0.34912  -0.27139
 Alpha virt. eigenvalues --   -0.21751  -0.20862  -0.16383  -0.14790  -0.13882
 Alpha virt. eigenvalues --   -0.12409  -0.11953  -0.11152  -0.11013  -0.09938
 Alpha virt. eigenvalues --   -0.09244  -0.07928  -0.07403  -0.07032  -0.06546

 Mulliken atomic charges:
              1
     1  O   -0.566410
     2  O   -0.557535
     3  O   -0.922043
     4  O   -0.847315
     5  P    0.957342
     6  Ca   1.221318
     7  Ca   0.666347
     8  Ca   1.048295
 Sum of Mulliken charges=   1.00000

 Dipole moment (field-independent basis, Debye):
    X=    -2.6703    Y=    -2.0487    Z=    -6.7096  Tot=     7.5064
 Quadrupole moment (field-independent basis, Debye-Ang):
   XX=   -56.0777   YY=   -48.0406   ZZ=   -86.9908
   XY=   -10.5761   XZ=   -10.0854   YZ=    -0.2597

 Normal termination of Gaussian 03 at Fri Jun 12 17:46:00 2015.
