 Gaussian 03, Revision E.01,
 Gaussian 03:  EM64T-G03RevE.01 11-Sep-2007

 ----------------------------------------------------
 # b3lyp/6-31+G(d,p) int=ultrafine pop=(ReadRadii,MK)
 ----------------------------------------------------

 ------------------------------------
 Ca3PO4_51.mol2c_plusQ.z51465.zip.xyz
 ------------------------------------
 Symbolic Z-matrix:
 Charge =  1 Multiplicity = 1

                         Standard orientation:
 ---------------------------------------------------------------------
 Center     Atomic     Atomic              Coordinates (Angstroms)
 Number     Number      Type              X           Y           Z
 ---------------------------------------------------------------------
    1          8             0        1.418186    0.429388    0.921410
    2          8             0       -1.079229    1.013198    0.924320
    3          8             0       -0.001670   -0.000079   -1.712090
    4          8             0       -0.336288   -1.441386    0.922550
    5         15             0        0.002680   -0.000324    1.718380
    6         20             0       -1.863841   -0.563618   -0.568530
    7         20             0        0.442286    1.893964   -0.571090
    8         20             0        1.419146   -1.330552   -0.571640
 ---------------------------------------------------------------------

 SCF Done:  E(RB+HF-LYP) =  -2675.07105689     A.U. after    8 cycles

 The electronic state is 1-A.
 Alpha  occ. eigenvalues -- -145.49650-145.49644-145.49623 -77.25048 -19.21279
 Alpha  occ. eigenvalues --  -19.21222 -19.21154 -19.15938 -15.56483 -15.56479
 Alpha  occ. eigenvalues --  -15.56459 -12.69681 -12.69678 -12.69659 -12.69657
 Alpha  occ. eigenvalues --  -12.69655 -12.69635 -12.69611 -12.69608 -12.69587
 Alpha  occ. eigenvalues --   -6.70078  -4.86427  -4.86427  -4.85890  -1.93826
 Alpha  occ. eigenvalues --   -1.93747  -1.93733  -1.22377  -1.21699  -1.21693
 Alpha  occ. eigenvalues --   -1.21307  -1.21141  -1.21069  -1.21061  -1.20649
 Alpha  occ. eigenvalues --   -1.20637  -1.06757  -1.00380  -1.00319  -0.90937
 Alpha  occ. eigenvalues --   -0.62635  -0.50531  -0.50512  -0.47956  -0.43355
 Alpha  occ. eigenvalues --   -0.43349  -0.38356  -0.38317  -0.38168  -0.36137
 Alpha  occ. eigenvalues --   -0.36130  -0.34589  -0.30853
 Alpha virt. eigenvalues --   -0.19950  -0.18032  -0.18023  -0.12556  -0.12554
 Alpha virt. eigenvalues --   -0.10894  -0.09480  -0.09473  -0.08339  -0.07773
 Alpha virt. eigenvalues --   -0.06545  -0.06116  -0.06113  -0.04764  -0.04716

 Mulliken atomic charges:
              1
     1  O   -1.032587
     2  O   -1.031903
     3  O   -1.250859
     4  O   -1.032258
     5  P    1.098269
     6  Ca   1.416921
     7  Ca   1.416091
     8  Ca   1.416327
 Sum of Mulliken charges=   1.00000

 Dipole moment (field-independent basis, Debye):
    X=    -0.0147    Y=    -0.0083    Z=    -8.2358  Tot=     8.2358
 Quadrupole moment (field-independent basis, Debye-Ang):
   XX=   -40.0106   YY=   -40.0746   ZZ=   -90.0204
   XY=     0.0007   XZ=    -0.0443   YZ=    -0.0113

 Normal termination of Gaussian 03 at Fri Jun 12 17:44:11 2015.
