 Gaussian 03, Revision E.01,
 Gaussian 03:  EM64T-G03RevE.01 11-Sep-2007

 ----------------------------------------------------
 # b3lyp/6-31+G(d,p) int=ultrafine pop=(ReadRadii,MK)
 ----------------------------------------------------

 -------------------------------------
 Ca3PO4_151.mol2c_plusQ.z51156.zip.xyz
 -------------------------------------
 Symbolic Z-matrix:
 Charge =  1 Multiplicity = 1

                         Standard orientation:
 ---------------------------------------------------------------------
 Center     Atomic     Atomic              Coordinates (Angstroms)
 Number     Number      Type              X           Y           Z
 ---------------------------------------------------------------------
    1          8             0       -0.888971    0.958161    0.028500
    2          8             0       -2.960363   -1.329657   -0.024900
    3          8             0        3.357539    0.666188    0.001060
    4          8             0        1.556978   -1.027330   -0.022120
    5         15             0        3.111948   -0.853092   -0.014250
    6         20             0       -0.803843   -1.421259    0.027080
    7         20             0        1.183610    1.561600    0.004270
    8         20             0       -3.139801    0.792533   -0.013680
 ---------------------------------------------------------------------

 SCF Done:  E(RB+HF-LYP) =  -2675.00687547     A.U. after   10 cycles

 The electronic state is 1-A.
 Alpha  occ. eigenvalues -- -145.52294-145.46957-145.45439 -77.31328 -19.29513
 Alpha  occ. eigenvalues --  -19.28783 -19.16999 -19.10462 -15.59202 -15.53856
 Alpha  occ. eigenvalues --  -15.52369 -12.72466 -12.72422 -12.72221 -12.67097
 Alpha  occ. eigenvalues --  -12.67012 -12.66934 -12.65638 -12.65547 -12.65412
 Alpha  occ. eigenvalues --   -6.76923  -4.93358  -4.93126  -4.92710  -1.96448
 Alpha  occ. eigenvalues --   -1.91147  -1.89789  -1.24381  -1.24366  -1.23334
 Alpha  occ. eigenvalues --   -1.19019  -1.18768  -1.18118  -1.17842  -1.17266
 Alpha  occ. eigenvalues --   -1.17045  -1.15048  -1.09395  -0.91732  -0.84436
 Alpha  occ. eigenvalues --   -0.68455  -0.57427  -0.54759  -0.54078  -0.46493
 Alpha  occ. eigenvalues --   -0.45035  -0.42655  -0.37838  -0.36783  -0.35790
 Alpha  occ. eigenvalues --   -0.29986  -0.28540  -0.28224
 Alpha virt. eigenvalues --   -0.21241  -0.20116  -0.17862  -0.15059  -0.12986
 Alpha virt. eigenvalues --   -0.11119  -0.10417  -0.10248  -0.09282  -0.08841
 Alpha virt. eigenvalues --   -0.08424  -0.07232  -0.06844  -0.06424  -0.05451

 Mulliken atomic charges:
              1
     1  O   -1.320924
     2  O   -1.131132
     3  O   -0.654324
     4  O   -0.741388
     5  P    0.676108
     6  Ca   1.326113
     7  Ca   1.498803
     8  Ca   1.346744
 Sum of Mulliken charges=   1.00000

 Dipole moment (field-independent basis, Debye):
    X=     0.1787    Y=     8.1730    Z=     0.1116  Tot=     8.1758
 Quadrupole moment (field-independent basis, Debye-Ang):
   XX=   -60.0098   YY=   -52.2507   ZZ=   -68.9389
   XY=   -23.1491   XZ=    -0.1324   YZ=    -0.8060

 Normal termination of Gaussian 03 at Fri Jun 12 17:38:41 2015.
