 Gaussian 03, Revision E.01,
 Gaussian 03:  EM64T-G03RevE.01 11-Sep-2007

 ----------------------------------------------------
 # b3lyp/6-31+G(d,p) int=ultrafine pop=(ReadRadii,MK)
 ----------------------------------------------------

 -------------------------------------
 Ca3PO4_193.mol2c_plusQ.z51202.zip.xyz
 -------------------------------------
 Symbolic Z-matrix:
 Charge =  1 Multiplicity = 1

                         Standard orientation:
 ---------------------------------------------------------------------
 Center     Atomic     Atomic              Coordinates (Angstroms)
 Number     Number      Type              X           Y           Z
 ---------------------------------------------------------------------
    1          8             0        1.434846    0.366874    0.922518
    2          8             0       -1.034670    1.059294    0.922278
    3          8             0       -0.399683   -1.425210    0.922798
    4          8             0       -0.000177   -0.000402   -1.712032
    5         15             0        0.000021    0.000429    1.718268
    6         20             0        0.525529    1.873023   -0.570752
    7         20             0       -1.885631   -0.481774   -0.570052
    8         20             0        1.359960   -1.391794   -0.570122
 ---------------------------------------------------------------------

 SCF Done:  E(RB+HF-LYP) =  -2675.07106136     A.U. after    8 cycles

 The electronic state is 1-A.
 Alpha  occ. eigenvalues -- -145.49645-145.49639-145.49630 -77.25055 -19.21225
 Alpha  occ. eigenvalues --  -19.21224 -19.21217 -19.15945 -15.56479 -15.56474
 Alpha  occ. eigenvalues --  -15.56466 -12.69677 -12.69673 -12.69665 -12.69654
 Alpha  occ. eigenvalues --  -12.69650 -12.69642 -12.69607 -12.69603 -12.69595
 Alpha  occ. eigenvalues --   -6.70085  -4.86433  -4.86433  -4.85897  -1.93825
 Alpha  occ. eigenvalues --   -1.93743  -1.93737  -1.22378  -1.21698  -1.21695
 Alpha  occ. eigenvalues --   -1.21308  -1.21140  -1.21067  -1.21063  -1.20646
 Alpha  occ. eigenvalues --   -1.20640  -1.06762  -1.00358  -1.00352  -0.90943
 Alpha  occ. eigenvalues --   -0.62641  -0.50528  -0.50527  -0.47962  -0.43359
 Alpha  occ. eigenvalues --   -0.43356  -0.38342  -0.38340  -0.38175  -0.36139
 Alpha  occ. eigenvalues --   -0.36137  -0.34594  -0.30859
 Alpha virt. eigenvalues --   -0.19951  -0.18030  -0.18025  -0.12556  -0.12555
 Alpha virt. eigenvalues --   -0.10894  -0.09479  -0.09476  -0.08339  -0.07773
 Alpha virt. eigenvalues --   -0.06545  -0.06115  -0.06114  -0.04765  -0.04715

 Mulliken atomic charges:
              1
     1  O   -1.032288
     2  O   -1.032335
     3  O   -1.032319
     4  O   -1.251094
     5  P    1.098241
     6  Ca   1.416435
     7  Ca   1.416744
     8  Ca   1.416616
 Sum of Mulliken charges=   1.00000

 Dipole moment (field-independent basis, Debye):
    X=    -0.0033    Y=    -0.0055    Z=    -8.2327  Tot=     8.2327
 Quadrupole moment (field-independent basis, Debye-Ang):
   XX=   -40.0206   YY=   -40.0449   ZZ=   -90.0167
   XY=    -0.0005   XZ=    -0.0068   YZ=    -0.0117

 Normal termination of Gaussian 03 at Fri Jun 12 17:40:47 2015.
