 Gaussian 03, Revision E.01,
 Gaussian 03:  EM64T-G03RevE.01 11-Sep-2007

 ----------------------------------------------------
 # b3lyp/6-31+G(d,p) int=ultrafine pop=(ReadRadii,MK)
 ----------------------------------------------------

 -------------------------------------
 Ca3PO4_162.mol2c_plusQ.z51168.zip.xyz
 -------------------------------------
 Symbolic Z-matrix:
 Charge =  1 Multiplicity = 1

                         Standard orientation:
 ---------------------------------------------------------------------
 Center     Atomic     Atomic              Coordinates (Angstroms)
 Number     Number      Type              X           Y           Z
 ---------------------------------------------------------------------
    1          8             0        1.346734    0.614637    0.923428
    2          8             0       -1.206392    0.859850    0.921588
    3          8             0       -0.141939   -1.473762    0.922348
    4          8             0        0.001040   -0.000409   -1.711932
    5         15             0       -0.001239    0.000293    1.718188
    6         20             0        1.584851   -1.129282   -0.569322
    7         20             0       -1.769988   -0.807446   -0.570922
    8         20             0        0.186289    1.936382   -0.570572
 ---------------------------------------------------------------------

 SCF Done:  E(RB+HF-LYP) =  -2675.07103701     A.U. after    8 cycles

 The electronic state is 1-A.
 Alpha  occ. eigenvalues -- -145.49640-145.49634-145.49632 -77.25058 -19.21237
 Alpha  occ. eigenvalues --  -19.21223 -19.21216 -19.15945 -15.56473 -15.56470
 Alpha  occ. eigenvalues --  -15.56468 -12.69670 -12.69669 -12.69667 -12.69648
 Alpha  occ. eigenvalues --  -12.69647 -12.69644 -12.69600 -12.69599 -12.69598
 Alpha  occ. eigenvalues --   -6.70088  -4.86437  -4.86437  -4.85900  -1.93823
 Alpha  occ. eigenvalues --   -1.93739  -1.93737  -1.22378  -1.21695  -1.21695
 Alpha  occ. eigenvalues --   -1.21307  -1.21138  -1.21064  -1.21063  -1.20642
 Alpha  occ. eigenvalues --   -1.20641  -1.06760  -1.00361  -1.00352  -0.90946
 Alpha  occ. eigenvalues --   -0.62645  -0.50530  -0.50528  -0.47963  -0.43359
 Alpha  occ. eigenvalues --   -0.43359  -0.38348  -0.38342  -0.38179  -0.36142
 Alpha  occ. eigenvalues --   -0.36140  -0.34597  -0.30863
 Alpha virt. eigenvalues --   -0.19950  -0.18027  -0.18025  -0.12555  -0.12554
 Alpha virt. eigenvalues --   -0.10894  -0.09478  -0.09477  -0.08338  -0.07772
 Alpha virt. eigenvalues --   -0.06545  -0.06114  -0.06113  -0.04765  -0.04716

 Mulliken atomic charges:
              1
     1  O   -1.032213
     2  O   -1.032281
     3  O   -1.032126
     4  O   -1.251071
     5  P    1.098053
     6  Ca   1.416597
     7  Ca   1.416569
     8  Ca   1.416472
 Sum of Mulliken charges=   1.00000

 Dipole moment (field-independent basis, Debye):
    X=     0.0053    Y=    -0.0037    Z=    -8.2320  Tot=     8.2320
 Quadrupole moment (field-independent basis, Debye-Ang):
   XX=   -40.0338   YY=   -40.0514   ZZ=   -90.0105
   XY=     0.0025   XZ=     0.0229   YZ=    -0.0132

 Normal termination of Gaussian 03 at Fri Jun 12 17:39:00 2015.
