 Gaussian 03, Revision E.01,
 Gaussian 03:  EM64T-G03RevE.01 11-Sep-2007

 ----------------------------------------------------
 # b3lyp/6-31+G(d,p) int=ultrafine pop=(ReadRadii,MK)
 ----------------------------------------------------

 -------------------------------------
 Ca3PO4_212.mol2c_plusQ.z51423.zip.xyz
 -------------------------------------
 Symbolic Z-matrix:
 Charge =  1 Multiplicity = 1

                         Standard orientation:
 ---------------------------------------------------------------------
 Center     Atomic     Atomic              Coordinates (Angstroms)
 Number     Number      Type              X           Y           Z
 ---------------------------------------------------------------------
    1          8             0       -2.672430   -1.294280    0.000460
    2          8             0       -1.710810    0.990180    0.004430
    3          8             0        1.217070   -0.021831    1.347630
    4          8             0        1.214340   -0.024951   -1.347510
    5         15             0       -3.058210    0.190540   -0.002270
    6         20             0       -0.303780   -1.216201    0.001420
    7         20             0        2.910220   -0.484611   -0.000810
    8         20             0        0.467950    1.698259   -0.000910
 ---------------------------------------------------------------------

 SCF Done:  E(RB+HF-LYP) =  -2674.99075611     A.U. after    8 cycles

 The electronic state is 1-A.
 Alpha  occ. eigenvalues -- -145.51323-145.49741-145.48292 -77.29224 -19.27557
 Alpha  occ. eigenvalues --  -19.26650 -19.15457 -19.15455 -15.58218 -15.56558
 Alpha  occ. eigenvalues --  -15.55164 -12.71472 -12.71343 -12.71315 -12.69785
 Alpha  occ. eigenvalues --  -12.69712 -12.69692 -12.68432 -12.68340 -12.68241
 Alpha  occ. eigenvalues --   -6.74842  -4.91270  -4.91054  -4.90624  -1.95519
 Alpha  occ. eigenvalues --   -1.93822  -1.92457  -1.23593  -1.22913  -1.22410
 Alpha  occ. eigenvalues --   -1.22239  -1.21043  -1.20939  -1.20572  -1.19720
 Alpha  occ. eigenvalues --   -1.19494  -1.13273  -1.07518  -0.90425  -0.89657
 Alpha  occ. eigenvalues --   -0.66690  -0.55633  -0.52746  -0.51979  -0.44496
 Alpha  occ. eigenvalues --   -0.43090  -0.40639  -0.36432  -0.36393  -0.35974
 Alpha  occ. eigenvalues --   -0.34611  -0.34301  -0.30012
 Alpha virt. eigenvalues --   -0.22157  -0.19125  -0.18185  -0.16471  -0.13519
 Alpha virt. eigenvalues --   -0.11723  -0.10788  -0.09585  -0.08642  -0.08136
 Alpha virt. eigenvalues --   -0.07693  -0.06971  -0.06479  -0.06008  -0.05434

 Mulliken atomic charges:
              1
     1  O   -0.635697
     2  O   -0.714634
     3  O   -1.188794
     4  O   -1.189149
     5  P    0.623060
     6  Ca   1.380440
     7  Ca   1.327531
     8  Ca   1.397244
 Sum of Mulliken charges=   1.00000

 Dipole moment (field-independent basis, Debye):
    X=    10.1615    Y=     1.2320    Z=    -0.0157  Tot=    10.2359
 Quadrupole moment (field-independent basis, Debye-Ang):
   XX=   -31.4809   YY=   -42.1709   ZZ=   -93.5411
   XY=    -6.5486   XZ=    -0.0309   YZ=    -0.0623

 Normal termination of Gaussian 03 at Fri Jun 12 17:41:40 2015.
