 Gaussian 03, Revision E.01,
 Gaussian 03:  EM64T-G03RevE.01 11-Sep-2007

 ----------------------------------------------------
 # b3lyp/6-31+G(d,p) int=ultrafine pop=(ReadRadii,MK)
 ----------------------------------------------------

 ------------------------------------
 Ca3PO4_196.mol2_plusQ.z51205.zip.xyz
 ------------------------------------
 Symbolic Z-matrix:
 Charge =  1 Multiplicity = 1

                         Standard orientation:
 ---------------------------------------------------------------------
 Center     Atomic     Atomic              Coordinates (Angstroms)
 Number     Number      Type              X           Y           Z
 ---------------------------------------------------------------------
    1          8             0        0.689958   -1.274897    0.363641
    2          8             0       -1.448744    0.039976    0.365891
    3          8             0        0.759416    1.234893    0.363611
    4          8             0        0.002540   -0.000078    2.593521
    5         15             0        0.000950    0.000031    1.113841
    6         20             0       -1.092355    2.016398   -0.769479
    7         20             0       -1.202110   -1.953027   -0.769469
    8         20             0        2.292484   -0.063352   -0.771099
 ---------------------------------------------------------------------

 SCF Done:  E(RB+HF-LYP) =  -2675.01478886     A.U. after    9 cycles

 The electronic state is 1-A.
 Alpha  occ. eigenvalues -- -145.53872-145.53864-145.53862 -77.31586 -19.24426
 Alpha  occ. eigenvalues --  -19.24424 -19.24422 -19.19214 -15.60746 -15.60739
 Alpha  occ. eigenvalues --  -15.60737 -12.73963 -12.73956 -12.73955 -12.73908
 Alpha  occ. eigenvalues --  -12.73901 -12.73899 -12.73866 -12.73859 -12.73858
 Alpha  occ. eigenvalues --   -6.76008  -4.92418  -4.92418  -4.92183  -1.97817
 Alpha  occ. eigenvalues --   -1.97803  -1.97799  -1.25923  -1.25345  -1.25344
 Alpha  occ. eigenvalues --   -1.25327  -1.25268  -1.25265  -1.25006  -1.24995
 Alpha  occ. eigenvalues --   -1.24993  -1.13124  -1.04756  -1.04754  -1.03149
 Alpha  occ. eigenvalues --   -0.63959  -0.55396  -0.55395  -0.51611  -0.47523
 Alpha  occ. eigenvalues --   -0.47522  -0.44254  -0.42318  -0.42315  -0.42313
 Alpha  occ. eigenvalues --   -0.36904  -0.36903  -0.27478
 Alpha virt. eigenvalues --   -0.21865  -0.21860  -0.16761  -0.14741  -0.14738
 Alpha virt. eigenvalues --   -0.12213  -0.12035  -0.12032  -0.10708  -0.08570
 Alpha virt. eigenvalues --   -0.08565  -0.07685  -0.05762  -0.05760  -0.05644

 Mulliken atomic charges:
              1
     1  O   -0.949988
     2  O   -0.949816
     3  O   -0.949844
     4  O   -0.564835
     5  P    1.097201
     6  Ca   1.105335
     7  Ca   1.105299
     8  Ca   1.106648
 Sum of Mulliken charges=   1.00000

 Dipole moment (field-independent basis, Debye):
    X=    -0.0052    Y=     0.0018    Z=   -10.4020  Tot=    10.4020
 Quadrupole moment (field-independent basis, Debye-Ang):
   XX=   -43.2320   YY=   -43.2772   ZZ=   -98.7788
   XY=    -0.0018   XZ=    -0.0392   YZ=    -0.0002

 Normal termination of Gaussian 03 at Fri Jun 12 17:40:58 2015.
