 Gaussian 03, Revision E.01,
 Gaussian 03:  EM64T-G03RevE.01 11-Sep-2007

 ----------------------------------------------------
 # b3lyp/6-31+G(d,p) int=ultrafine pop=(ReadRadii,MK)
 ----------------------------------------------------

 ------------------------------------
 Ca3PO4_38.mol2c_plusQ.z51450.zip.xyz
 ------------------------------------
 Symbolic Z-matrix:
 Charge =  1 Multiplicity = 1

                         Standard orientation:
 ---------------------------------------------------------------------
 Center     Atomic     Atomic              Coordinates (Angstroms)
 Number     Number      Type              X           Y           Z
 ---------------------------------------------------------------------
    1          8             0       -0.889677   -1.418397   -0.586188
    2          8             0        1.955959    0.139468    0.779992
    3          8             0        2.100956    0.419730   -0.734848
    4          8             0       -1.171669    2.047380   -0.001848
    5         15             0       -1.063294   -1.779019    0.989802
    6         20             0        0.965081    2.136819    0.256962
    7         20             0        1.475085   -1.687196   -0.400918
    8         20             0       -2.440924    0.409368   -0.381238
 ---------------------------------------------------------------------

 SCF Done:  E(RB+HF-LYP) =  -2674.83199504     A.U. after   11 cycles

 The electronic state is 1-A.
 Alpha  occ. eigenvalues -- -145.51438-145.49874-145.45017 -77.25244 -19.29804
 Alpha  occ. eigenvalues --  -19.23905 -19.23675 -19.12599 -15.58286 -15.56746
 Alpha  occ. eigenvalues --  -15.51967 -12.71504 -12.71477 -12.71406 -12.69973
 Alpha  occ. eigenvalues --  -12.69945 -12.69828 -12.65190 -12.65184 -12.65015
 Alpha  occ. eigenvalues --   -6.71683  -4.88359  -4.87925  -4.87018  -1.95433
 Alpha  occ. eigenvalues --   -1.93915  -1.89348  -1.23463  -1.23144  -1.22831
 Alpha  occ. eigenvalues --   -1.21695  -1.21544  -1.20840  -1.17542  -1.17113
 Alpha  occ. eigenvalues --   -1.16575  -1.10744  -1.06694  -0.86941  -0.86645
 Alpha  occ. eigenvalues --   -0.67653  -0.52325  -0.50357  -0.49422  -0.47174
 Alpha  occ. eigenvalues --   -0.46155  -0.44168  -0.34757  -0.32916  -0.32191
 Alpha  occ. eigenvalues --   -0.31697  -0.30740  -0.30482
 Alpha virt. eigenvalues --   -0.24888  -0.19649  -0.17960  -0.14766  -0.12519
 Alpha virt. eigenvalues --   -0.11420  -0.10077  -0.09394  -0.09192  -0.08683
 Alpha virt. eigenvalues --   -0.08070  -0.06366  -0.06241  -0.06183  -0.05928

 Mulliken atomic charges:
              1
     1  O   -0.623454
     2  O   -0.646888
     3  O   -0.636097
     4  O   -1.185977
     5  P   -0.121968
     6  Ca   1.422905
     7  Ca   1.428250
     8  Ca   1.363228
 Sum of Mulliken charges=   1.00000

 Dipole moment (field-independent basis, Debye):
    X=    -1.7302    Y=    -3.4256    Z=    -3.2492  Tot=     5.0285
 Quadrupole moment (field-independent basis, Debye-Ang):
   XX=   -42.0215   YY=   -46.2174   ZZ=   -73.2917
   XY=    -1.0666   XZ=     4.3865   YZ=     8.8985

 Normal termination of Gaussian 03 at Fri Jun 12 17:43:30 2015.
