 Gaussian 03, Revision E.01,
 Gaussian 03:  EM64T-G03RevE.01 11-Sep-2007

 ----------------------------------------------------
 # b3lyp/6-31+G(d,p) int=ultrafine pop=(ReadRadii,MK)
 ----------------------------------------------------

 ------------------------------------
 Ca3PO4_47.mol2c_plusQ.z51460.zip.xyz
 ------------------------------------
 Symbolic Z-matrix:
 Charge =  1 Multiplicity = 1

                         Standard orientation:
 ---------------------------------------------------------------------
 Center     Atomic     Atomic              Coordinates (Angstroms)
 Number     Number      Type              X           Y           Z
 ---------------------------------------------------------------------
    1          8             0       -1.207063   -1.304556   -0.456380
    2          8             0        2.167061    0.000040    0.760670
    3          8             0       -1.207016    1.304924   -0.454920
    4          8             0        0.749901   -0.000857    1.322500
    5         15             0       -1.092899    0.000784   -1.561560
    6         20             0       -1.499689   -0.000968    1.375640
    7         20             0        1.058802    1.692045   -0.335960
    8         20             0        1.059409   -1.691485   -0.337260
 ---------------------------------------------------------------------

 SCF Done:  E(RB+HF-LYP) =  -2674.89010783     A.U. after    7 cycles

 The electronic state is 1-A.
 Alpha  occ. eigenvalues -- -145.52823-145.50762-145.50758 -77.21497 -19.26308
 Alpha  occ. eigenvalues --  -19.25929 -19.22263 -19.22263 -15.59596 -15.57612
 Alpha  occ. eigenvalues --  -15.57609 -12.72780 -12.72778 -12.72756 -12.70847
 Alpha  occ. eigenvalues --  -12.70844 -12.70796 -12.70792 -12.70715 -12.70712
 Alpha  occ. eigenvalues --   -6.67305  -4.83740  -4.83469  -4.83044  -1.96771
 Alpha  occ. eigenvalues --   -1.94808  -1.94752  -1.24746  -1.24315  -1.24227
 Alpha  occ. eigenvalues --   -1.23218  -1.22465  -1.22311  -1.22185  -1.22120
 Alpha  occ. eigenvalues --   -1.21776  -1.10229  -1.04698  -1.00697  -0.89611
 Alpha  occ. eigenvalues --   -0.63135  -0.51641  -0.49766  -0.48644  -0.48467
 Alpha  occ. eigenvalues --   -0.47610  -0.44976  -0.41618  -0.39259  -0.37725
 Alpha  occ. eigenvalues --   -0.35793  -0.34539  -0.25349
 Alpha virt. eigenvalues --   -0.20590  -0.19189  -0.18822  -0.13461  -0.13073
 Alpha virt. eigenvalues --   -0.11284  -0.11000  -0.10667  -0.09123  -0.08673
 Alpha virt. eigenvalues --   -0.08243  -0.07168  -0.06824  -0.06450  -0.05779

 Mulliken atomic charges:
              1
     1  O   -0.776288
     2  O   -0.608248
     3  O   -0.776292
     4  O   -0.673343
     5  P   -0.226403
     6  Ca   1.540035
     7  Ca   1.260138
     8  Ca   1.260401
 Sum of Mulliken charges=   1.00000

 Dipole moment (field-independent basis, Debye):
    X=     0.9931    Y=    -0.0038    Z=     5.3923  Tot=     5.4830
 Quadrupole moment (field-independent basis, Debye-Ang):
   XX=   -67.1719   YY=   -43.8680   ZZ=   -71.1918
   XY=     0.0101   XZ=   -29.6564   YZ=     0.0052

 Normal termination of Gaussian 03 at Fri Jun 12 17:43:32 2015.
