 Gaussian 03, Revision E.01,
 Gaussian 03:  EM64T-G03RevE.01 11-Sep-2007

 ----------------------------------------------------
 # b3lyp/6-31+G(d,p) int=ultrafine pop=(ReadRadii,MK)
 ----------------------------------------------------

 ------------------------------------
 Ca3PO4_82.mol2c_plusQ.z51499.zip.xyz
 ------------------------------------
 Symbolic Z-matrix:
 Charge =  1 Multiplicity = 1

                         Standard orientation:
 ---------------------------------------------------------------------
 Center     Atomic     Atomic              Coordinates (Angstroms)
 Number     Number      Type              X           Y           Z
 ---------------------------------------------------------------------
    1          8             0        0.586488   -1.253961   -0.107981
    2          8             0        2.238918    0.000299    1.331289
    3          8             0        0.587438    1.253079   -0.110151
    4          8             0       -2.692572    0.000598   -0.332191
    5         15             0        0.691528    0.000449    1.034419
    6         20             0        2.440778   -0.000781   -0.935481
    7         20             0       -1.623082    1.818529   -0.076381
    8         20             0       -1.624451   -1.818091   -0.076341
 ---------------------------------------------------------------------

 SCF Done:  E(RB+HF-LYP) =  -2674.99967869     A.U. after    8 cycles

 The electronic state is 1-A.
 Alpha  occ. eigenvalues -- -145.52898-145.48522-145.48520 -77.24505 -19.21557
 Alpha  occ. eigenvalues --  -19.21555 -19.18909 -19.12190 -15.59695 -15.55425
 Alpha  occ. eigenvalues --  -15.55422 -12.72877 -12.72873 -12.72861 -12.68677
 Alpha  occ. eigenvalues --  -12.68675 -12.68608 -12.68606 -12.68484 -12.68481
 Alpha  occ. eigenvalues --   -6.69821  -4.86200  -4.86123  -4.85702  -1.96738
 Alpha  occ. eigenvalues --   -1.92690  -1.92664  -1.24714  -1.24000  -1.23963
 Alpha  occ. eigenvalues --   -1.20598  -1.20528  -1.20413  -1.20156  -1.19798
 Alpha  occ. eigenvalues --   -1.19306  -1.06952  -0.99973  -0.99927  -0.86573
 Alpha  occ. eigenvalues --   -0.61877  -0.49709  -0.49545  -0.48419  -0.42889
 Alpha  occ. eigenvalues --   -0.42355  -0.38145  -0.37914  -0.34573  -0.32839
 Alpha  occ. eigenvalues --   -0.32544  -0.30666  -0.30262
 Alpha virt. eigenvalues --   -0.20426  -0.18309  -0.17400  -0.12507  -0.11991
 Alpha virt. eigenvalues --   -0.10384  -0.10050  -0.08962  -0.08368  -0.08012
 Alpha virt. eigenvalues --   -0.07400  -0.06924  -0.06468  -0.05551  -0.05312

 Mulliken atomic charges:
              1
     1  O   -0.957554
     2  O   -0.880203
     3  O   -0.957463
     4  O   -1.183604
     5  P    0.749878
     6  Ca   1.380307
     7  Ca   1.424256
     8  Ca   1.424384
 Sum of Mulliken charges=   1.00000

 Dipole moment (field-independent basis, Debye):
    X=     1.5080    Y=    -0.0051    Z=    -7.5068  Tot=     7.6567
 Quadrupole moment (field-independent basis, Debye-Ang):
   XX=   -53.1180   YY=   -32.2867   ZZ=   -70.0794
   XY=     0.0063   XZ=   -28.0968   YZ=     0.0135

 Normal termination of Gaussian 03 at Fri Jun 12 17:45:40 2015.
