 Gaussian 03, Revision E.01,
 Gaussian 03:  EM64T-G03RevE.01 11-Sep-2007

 ----------------------------------------------------
 # b3lyp/6-31+G(d,p) int=ultrafine pop=(ReadRadii,MK)
 ----------------------------------------------------

 -------------------------------------
 Ca3PO4_220.mol2c_plusQ.z51432.zip.xyz
 -------------------------------------
 Symbolic Z-matrix:
 Charge =  1 Multiplicity = 1

                         Standard orientation:
 ---------------------------------------------------------------------
 Center     Atomic     Atomic              Coordinates (Angstroms)
 Number     Number      Type              X           Y           Z
 ---------------------------------------------------------------------
    1          8             0       -2.938529    0.669268    0.010840
    2          8             0       -1.669638   -1.510132   -0.003600
    3          8             0        0.827931    0.942169   -0.004480
    4          8             0        2.838472   -1.416160    0.006240
    5         15             0       -3.071518   -0.877462   -0.001430
    6         20             0       -1.072419    1.953719   -0.001470
    7         20             0        0.670182   -1.459311   -0.001310
    8         20             0        3.082581    0.689630    0.000250
 ---------------------------------------------------------------------

 SCF Done:  E(RB+HF-LYP) =  -2675.00577618     A.U. after   10 cycles

 The electronic state is 1-A.
 Alpha  occ. eigenvalues -- -145.53297-145.47061-145.44456 -77.29374 -19.27559
 Alpha  occ. eigenvalues --  -19.27155 -19.17722 -19.10346 -15.60188 -15.53961
 Alpha  occ. eigenvalues --  -15.51415 -12.73444 -12.73391 -12.73232 -12.67201
 Alpha  occ. eigenvalues --  -12.67119 -12.67040 -12.64691 -12.64600 -12.64446
 Alpha  occ. eigenvalues --   -6.74924  -4.91364  -4.91140  -4.90703  -1.97386
 Alpha  occ. eigenvalues --   -1.91259  -1.88867  -1.25238  -1.25081  -1.24258
 Alpha  occ. eigenvalues --   -1.19126  -1.18801  -1.18219  -1.16973  -1.16363
 Alpha  occ. eigenvalues --   -1.16251  -1.13218  -1.07824  -0.92341  -0.84307
 Alpha  occ. eigenvalues --   -0.66959  -0.56429  -0.52366  -0.52161  -0.45121
 Alpha  occ. eigenvalues --   -0.43221  -0.40523  -0.38466  -0.37492  -0.36329
 Alpha  occ. eigenvalues --   -0.29839  -0.28431  -0.28135
 Alpha virt. eigenvalues --   -0.21409  -0.19348  -0.18296  -0.14032  -0.13475
 Alpha virt. eigenvalues --   -0.11771  -0.10628  -0.10448  -0.08670  -0.08512
 Alpha virt. eigenvalues --   -0.07769  -0.07169  -0.06430  -0.06115  -0.05567

 Mulliken atomic charges:
              1
     1  O   -0.721047
     2  O   -0.683044
     3  O   -1.346281
     4  O   -1.119208
     5  P    0.671191
     6  Ca   1.524900
     7  Ca   1.348191
     8  Ca   1.325298
 Sum of Mulliken charges=   1.00000

 Dipole moment (field-independent basis, Debye):
    X=     0.3889    Y=    11.5052    Z=    -0.0449  Tot=    11.5118
 Quadrupole moment (field-independent basis, Debye-Ang):
   XX=   -59.0401   YY=   -46.7596   ZZ=   -69.1175
   XY=    17.4060   XZ=    -0.0058   YZ=     0.0202

 Normal termination of Gaussian 03 at Fri Jun 12 17:42:30 2015.
