 Gaussian 03, Revision E.01,
 Gaussian 03:  EM64T-G03RevE.01 11-Sep-2007

 ----------------------------------------------------
 # b3lyp/6-31+G(d,p) int=ultrafine pop=(ReadRadii,MK)
 ----------------------------------------------------

 -------------------------------------
 Ca3PO4_197.mol2c_plusQ.z51206.zip.xyz
 -------------------------------------
 Symbolic Z-matrix:
 Charge =  1 Multiplicity = 1

                         Standard orientation:
 ---------------------------------------------------------------------
 Center     Atomic     Atomic              Coordinates (Angstroms)
 Number     Number      Type              X           Y           Z
 ---------------------------------------------------------------------
    1          8             0        0.587347    1.253751   -0.108309
    2          8             0        0.586543   -1.253299   -0.109159
    3          8             0        2.239350   -0.000965    1.330841
    4          8             0       -2.692230    0.000143   -0.333089
    5         15             0        0.691860   -0.000039    1.034791
    6         20             0       -1.623696   -1.817994   -0.076169
    7         20             0        2.439900    0.000115   -0.936019
    8         20             0       -1.623504    1.818056   -0.076019
 ---------------------------------------------------------------------

 SCF Done:  E(RB+HF-LYP) =  -2674.99967839     A.U. after    8 cycles

 The electronic state is 1-A.
 Alpha  occ. eigenvalues -- -145.52896-145.48521-145.48516 -77.24508 -19.21565
 Alpha  occ. eigenvalues --  -19.21551 -19.18910 -19.12193 -15.59693 -15.55424
 Alpha  occ. eigenvalues --  -15.55419 -12.72875 -12.72871 -12.72859 -12.68676
 Alpha  occ. eigenvalues --  -12.68672 -12.68607 -12.68603 -12.68483 -12.68478
 Alpha  occ. eigenvalues --   -6.69824  -4.86204  -4.86127  -4.85705  -1.96737
 Alpha  occ. eigenvalues --   -1.92689  -1.92663  -1.24714  -1.23999  -1.23962
 Alpha  occ. eigenvalues --   -1.20598  -1.20527  -1.20412  -1.20156  -1.19798
 Alpha  occ. eigenvalues --   -1.19305  -1.06955  -0.99976  -0.99930  -0.86578
 Alpha  occ. eigenvalues --   -0.61881  -0.49713  -0.49548  -0.48422  -0.42893
 Alpha  occ. eigenvalues --   -0.42359  -0.38148  -0.37916  -0.34576  -0.32844
 Alpha  occ. eigenvalues --   -0.32547  -0.30671  -0.30268
 Alpha virt. eigenvalues --   -0.20426  -0.18309  -0.17400  -0.12508  -0.11992
 Alpha virt. eigenvalues --   -0.10386  -0.10050  -0.08962  -0.08368  -0.08013
 Alpha virt. eigenvalues --   -0.07400  -0.06924  -0.06469  -0.05554  -0.05312

 Mulliken atomic charges:
              1
     1  O   -0.957502
     2  O   -0.957499
     3  O   -0.880310
     4  O   -1.183588
     5  P    0.750011
     6  Ca   1.424248
     7  Ca   1.380364
     8  Ca   1.424277
 Sum of Mulliken charges=   1.00000

 Dipole moment (field-independent basis, Debye):
    X=     1.5036    Y=     0.0018    Z=    -7.5028  Tot=     7.6520
 Quadrupole moment (field-independent basis, Debye-Ang):
   XX=   -53.1450   YY=   -32.3007   ZZ=   -70.0654
   XY=     0.0089   XZ=   -28.1202   YZ=     0.0010

 Normal termination of Gaussian 03 at Fri Jun 12 17:40:49 2015.
