 Gaussian 03, Revision E.01,
 Gaussian 03:  EM64T-G03RevE.01 11-Sep-2007

 ----------------------------------------------------
 # b3lyp/6-31+G(d,p) int=ultrafine pop=(ReadRadii,MK)
 ----------------------------------------------------

 -------------------------------------
 Ca3PO4_156.mol2c_plusQ.z51161.zip.xyz
 -------------------------------------
 Symbolic Z-matrix:
 Charge =  1 Multiplicity = 1

                         Standard orientation:
 ---------------------------------------------------------------------
 Center     Atomic     Atomic              Coordinates (Angstroms)
 Number     Number      Type              X           Y           Z
 ---------------------------------------------------------------------
    1          8             0       -1.456787    0.253971    0.924969
    2          8             0        0.950654    1.137718    0.918219
    3          8             0        0.511211   -1.389256    0.923509
    4          8             0       -0.002563   -0.001608   -1.711241
    5         15             0        0.003000    0.001476    1.718589
    6         20             0       -0.671771    1.825220   -0.570401
    7         20             0        1.917118   -0.333321   -0.572421
    8         20             0       -1.248603   -1.493336   -0.568301
 ---------------------------------------------------------------------

 SCF Done:  E(RB+HF-LYP) =  -2675.07104494     A.U. after    8 cycles

 The electronic state is 1-A.
 Alpha  occ. eigenvalues -- -145.49639-145.49630-145.49607 -77.25047 -19.21250
 Alpha  occ. eigenvalues --  -19.21242 -19.21126 -19.15920 -15.56473 -15.56464
 Alpha  occ. eigenvalues --  -15.56442 -12.69672 -12.69663 -12.69649 -12.69641
 Alpha  occ. eigenvalues --  -12.69640 -12.69618 -12.69602 -12.69593 -12.69571
 Alpha  occ. eigenvalues --   -6.70075  -4.86424  -4.86424  -4.85888  -1.93814
 Alpha  occ. eigenvalues --   -1.93735  -1.93719  -1.22365  -1.21689  -1.21680
 Alpha  occ. eigenvalues --   -1.21296  -1.21129  -1.21057  -1.21048  -1.20638
 Alpha  occ. eigenvalues --   -1.20623  -1.06741  -1.00362  -1.00307  -0.90924
 Alpha  occ. eigenvalues --   -0.62630  -0.50520  -0.50503  -0.47945  -0.43345
 Alpha  occ. eigenvalues --   -0.43338  -0.38339  -0.38309  -0.38159  -0.36128
 Alpha  occ. eigenvalues --   -0.36118  -0.34579  -0.30856
 Alpha virt. eigenvalues --   -0.19946  -0.18027  -0.18018  -0.12556  -0.12545
 Alpha virt. eigenvalues --   -0.10890  -0.09477  -0.09473  -0.08335  -0.07769
 Alpha virt. eigenvalues --   -0.06544  -0.06114  -0.06112  -0.04763  -0.04716

 Mulliken atomic charges:
              1
     1  O   -1.032926
     2  O   -1.031912
     3  O   -1.032648
     4  O   -1.250688
     5  P    1.098704
     6  Ca   1.415980
     7  Ca   1.416929
     8  Ca   1.416561
 Sum of Mulliken charges=   1.00000

 Dipole moment (field-independent basis, Debye):
    X=    -0.0145    Y=    -0.0077    Z=    -8.2339  Tot=     8.2339
 Quadrupole moment (field-independent basis, Debye-Ang):
   XX=   -39.9944   YY=   -40.1012   ZZ=   -89.9947
   XY=    -0.0087   XZ=    -0.0555   YZ=    -0.0197

 Normal termination of Gaussian 03 at Fri Jun 12 17:38:47 2015.
