 Gaussian 03, Revision E.01,
 Gaussian 03:  EM64T-G03RevE.01 11-Sep-2007

 ----------------------------------------------------
 # b3lyp/6-31+G(d,p) int=ultrafine pop=(ReadRadii,MK)
 ----------------------------------------------------

 ------------------------------------
 Ca3PO4_67.mol2c_plusQ.z51482.zip.xyz
 ------------------------------------
 Symbolic Z-matrix:
 Charge =  1 Multiplicity = 1

                         Standard orientation:
 ---------------------------------------------------------------------
 Center     Atomic     Atomic              Coordinates (Angstroms)
 Number     Number      Type              X           Y           Z
 ---------------------------------------------------------------------
    1          8             0       -1.669811   -1.510271   -0.003450
    2          8             0       -2.938381    0.669349    0.011040
    3          8             0        0.828059    0.942209   -0.004670
    4          8             0        2.838299   -1.416301    0.006390
    5         15             0       -3.071591   -0.877351   -0.001430
    6         20             0       -1.072271    1.953789   -0.001520
    7         20             0        0.670009   -1.459231   -0.001470
    8         20             0        3.082689    0.689459    0.000340
 ---------------------------------------------------------------------

 SCF Done:  E(RB+HF-LYP) =  -2675.00577606     A.U. after   10 cycles

 The electronic state is 1-A.
 Alpha  occ. eigenvalues -- -145.53297-145.47061-145.44456 -77.29374 -19.27560
 Alpha  occ. eigenvalues --  -19.27155 -19.17723 -19.10346 -15.60189 -15.53962
 Alpha  occ. eigenvalues --  -15.51415 -12.73445 -12.73392 -12.73233 -12.67201
 Alpha  occ. eigenvalues --  -12.67119 -12.67040 -12.64691 -12.64600 -12.64445
 Alpha  occ. eigenvalues --   -6.74924  -4.91364  -4.91140  -4.90703  -1.97386
 Alpha  occ. eigenvalues --   -1.91260  -1.88867  -1.25238  -1.25082  -1.24259
 Alpha  occ. eigenvalues --   -1.19126  -1.18802  -1.18219  -1.16973  -1.16363
 Alpha  occ. eigenvalues --   -1.16251  -1.13218  -1.07824  -0.92342  -0.84307
 Alpha  occ. eigenvalues --   -0.66959  -0.56429  -0.52366  -0.52161  -0.45121
 Alpha  occ. eigenvalues --   -0.43221  -0.40523  -0.38466  -0.37493  -0.36330
 Alpha  occ. eigenvalues --   -0.29839  -0.28431  -0.28135
 Alpha virt. eigenvalues --   -0.21410  -0.19348  -0.18296  -0.14032  -0.13476
 Alpha virt. eigenvalues --   -0.11772  -0.10628  -0.10448  -0.08670  -0.08512
 Alpha virt. eigenvalues --   -0.07769  -0.07169  -0.06430  -0.06115  -0.05568

 Mulliken atomic charges:
              1
     1  O   -0.683067
     2  O   -0.721049
     3  O   -1.346274
     4  O   -1.119208
     5  P    0.671210
     6  Ca   1.524895
     7  Ca   1.348178
     8  Ca   1.325316
 Sum of Mulliken charges=   1.00000

 Dipole moment (field-independent basis, Debye):
    X=     0.3897    Y=    11.5062    Z=    -0.0463  Tot=    11.5128
 Quadrupole moment (field-independent basis, Debye-Ang):
   XX=   -59.0324   YY=   -46.7659   ZZ=   -69.1175
   XY=    17.4053   XZ=    -0.0044   YZ=     0.0241

 Normal termination of Gaussian 03 at Fri Jun 12 17:44:47 2015.
