 Gaussian 03, Revision E.01,
 Gaussian 03:  EM64T-G03RevE.01 11-Sep-2007

 ----------------------------------------------------
 # b3lyp/6-31+G(d,p) int=ultrafine pop=(ReadRadii,MK)
 ----------------------------------------------------

 -------------------------------------
 Ca3PO4_173.mol2c_plusQ.z51180.zip.xyz
 -------------------------------------
 Symbolic Z-matrix:
 Charge =  1 Multiplicity = 1

                         Standard orientation:
 ---------------------------------------------------------------------
 Center     Atomic     Atomic              Coordinates (Angstroms)
 Number     Number      Type              X           Y           Z
 ---------------------------------------------------------------------
    1          8             0        1.914740   -0.000045   -1.241330
    2          8             0       -1.037657    1.321271    0.101760
    3          8             0       -1.037163   -1.321109    0.101950
    4          8             0        2.665370    0.000284    0.135520
    5         15             0       -0.932980    0.000441    1.272750
    6         20             0        1.215346   -1.717143    0.020330
    7         20             0        1.214863    1.717107    0.019940
    8         20             0       -2.732590   -0.000455   -0.633990
 ---------------------------------------------------------------------

 SCF Done:  E(RB+HF-LYP) =  -2674.87506993     A.U. after   10 cycles

 The electronic state is 1-A.
 Alpha  occ. eigenvalues -- -145.54264-145.47999-145.47996 -77.19274 -19.21436
 Alpha  occ. eigenvalues --  -19.21418 -19.21071 -19.21062 -15.61064 -15.54865
 Alpha  occ. eigenvalues --  -15.54862 -12.74286 -12.74218 -12.74218 -12.68105
 Alpha  occ. eigenvalues --  -12.68102 -12.68065 -12.68062 -12.67947 -12.67944
 Alpha  occ. eigenvalues --   -6.65474  -4.81971  -4.81714  -4.81053  -1.98039
 Alpha  occ. eigenvalues --   -1.92134  -1.92081  -1.25714  -1.25443  -1.25204
 Alpha  occ. eigenvalues --   -1.20877  -1.19867  -1.19780  -1.19552  -1.19548
 Alpha  occ. eigenvalues --   -1.19047  -1.03839  -1.02409  -0.98927  -0.84872
 Alpha  occ. eigenvalues --   -0.62501  -0.47223  -0.46775  -0.45023  -0.44343
 Alpha  occ. eigenvalues --   -0.43469  -0.41723  -0.41647  -0.37155  -0.36898
 Alpha  occ. eigenvalues --   -0.31996  -0.30083  -0.25944
 Alpha virt. eigenvalues --   -0.21893  -0.16792  -0.16514  -0.13553  -0.12576
 Alpha virt. eigenvalues --   -0.11118  -0.09709  -0.09304  -0.08112  -0.08039
 Alpha virt. eigenvalues --   -0.07025  -0.06879  -0.06369  -0.05857  -0.05177

 Mulliken atomic charges:
              1
     1  O   -0.645111
     2  O   -0.822154
     3  O   -0.822232
     4  O   -0.659523
     5  P   -0.354604
     6  Ca   1.435507
     7  Ca   1.435325
     8  Ca   1.432793
 Sum of Mulliken charges=   1.00000

 Dipole moment (field-independent basis, Debye):
    X=    -6.8809    Y=    -0.0055    Z=    -3.7351  Tot=     7.8293
 Quadrupole moment (field-independent basis, Debye-Ang):
   XX=   -44.9270   YY=   -37.8870   ZZ=   -77.2423
   XY=     0.0019   XZ=    23.2476   YZ=    -0.0039

 Normal termination of Gaussian 03 at Fri Jun 12 17:39:52 2015.
