 Gaussian 03, Revision E.01,
 Gaussian 03:  EM64T-G03RevE.01 11-Sep-2007

 ----------------------------------------------------
 # b3lyp/6-31+G(d,p) int=ultrafine pop=(ReadRadii,MK)
 ----------------------------------------------------

 -------------------------------------
 Ca3PO4_61.mol2c_plusQc.z51701.zip.xyz
 -------------------------------------
 Symbolic Z-matrix:
 Charge =  1 Multiplicity = 1

                         Standard orientation:
 ---------------------------------------------------------------------
 Center     Atomic     Atomic              Coordinates (Angstroms)
 Number     Number      Type              X           Y           Z
 ---------------------------------------------------------------------
    1          8             0        1.208746    1.303233   -0.457371
    2          8             0       -2.166699    0.002415    0.763089
    3          8             0        1.205965   -1.305687   -0.455991
    4          8             0       -0.748049    0.001251    1.321379
    5         15             0        1.092791   -0.001888   -1.561241
    6         20             0       -1.058598    1.691828   -0.337051
    7         20             0       -1.061980   -1.690513   -0.335651
    8         20             0        1.501001   -0.000384    1.375189
 ---------------------------------------------------------------------

 SCF Done:  E(RB+HF-LYP) =  -2674.89010738     A.U. after    7 cycles

 The electronic state is 1-A.
 Alpha  occ. eigenvalues -- -145.52839-145.50764-145.50760 -77.21497 -19.26314
 Alpha  occ. eigenvalues --  -19.25934 -19.22273 -19.22272 -15.59611 -15.57615
 Alpha  occ. eigenvalues --  -15.57611 -12.72795 -12.72794 -12.72772 -12.70850
 Alpha  occ. eigenvalues --  -12.70846 -12.70798 -12.70794 -12.70718 -12.70714
 Alpha  occ. eigenvalues --   -6.67306  -4.83740  -4.83470  -4.83047  -1.96786
 Alpha  occ. eigenvalues --   -1.94809  -1.94754  -1.24759  -1.24329  -1.24241
 Alpha  occ. eigenvalues --   -1.23224  -1.22466  -1.22312  -1.22185  -1.22121
 Alpha  occ. eigenvalues --   -1.21778  -1.10233  -1.04731  -1.00721  -0.89623
 Alpha  occ. eigenvalues --   -0.63134  -0.51651  -0.49783  -0.48659  -0.48477
 Alpha  occ. eigenvalues --   -0.47627  -0.44990  -0.41630  -0.39269  -0.37718
 Alpha  occ. eigenvalues --   -0.35803  -0.34550  -0.25339
 Alpha virt. eigenvalues --   -0.20596  -0.19189  -0.18822  -0.13462  -0.13078
 Alpha virt. eigenvalues --   -0.11290  -0.11008  -0.10661  -0.09127  -0.08674
 Alpha virt. eigenvalues --   -0.08248  -0.07162  -0.06825  -0.06454  -0.05775

 Mulliken atomic charges:
              1
     1  O   -0.775387
     2  O   -0.608164
     3  O   -0.775158
     4  O   -0.673156
     5  P   -0.226052
     6  Ca   1.259064
     7  Ca   1.259037
     8  Ca   1.539814
 Sum of Mulliken charges=   1.00000

 Dipole moment (field-independent basis, Debye):
    X=    -0.9727    Y=     0.0025    Z=     5.4009  Tot=     5.4878
 Quadrupole moment (field-independent basis, Debye-Ang):
   XX=   -67.1237   YY=   -43.9346   ZZ=   -71.2286
   XY=     0.0395   XZ=    29.6421   YZ=    -0.0333

 Normal termination of Gaussian 03 at Fri Jun 12 17:44:17 2015.
