 Gaussian 03, Revision E.01,
 Gaussian 03:  EM64T-G03RevE.01 11-Sep-2007

 ----------------------------------------------------
 # b3lyp/6-31+G(d,p) int=ultrafine pop=(ReadRadii,MK)
 ----------------------------------------------------

 -------------------------------------
 Ca3PO4_152.mol2c_plusQ.z51157.zip.xyz
 -------------------------------------
 Symbolic Z-matrix:
 Charge =  1 Multiplicity = 1

                         Standard orientation:
 ---------------------------------------------------------------------
 Center     Atomic     Atomic              Coordinates (Angstroms)
 Number     Number      Type              X           Y           Z
 ---------------------------------------------------------------------
    1          8             0        0.456213   -1.407719    0.923970
    2          8             0        0.990147    1.100892    0.922590
    3          8             0       -1.449253    0.309308    0.920580
    4          8             0        0.001742   -0.001817   -1.712120
    5         15             0       -0.001814    0.001737    1.718150
    6         20             0       -0.600023    1.850318   -0.572040
    7         20             0       -1.302155   -1.446095   -0.570090
    8         20             0        1.903999   -0.405791   -0.568490
 ---------------------------------------------------------------------

 SCF Done:  E(RB+HF-LYP) =  -2675.07105331     A.U. after    8 cycles

 The electronic state is 1-A.
 Alpha  occ. eigenvalues -- -145.49643-145.49637-145.49632 -77.25057 -19.21247
 Alpha  occ. eigenvalues --  -19.21226 -19.21195 -19.15941 -15.56477 -15.56472
 Alpha  occ. eigenvalues --  -15.56467 -12.69675 -12.69671 -12.69666 -12.69652
 Alpha  occ. eigenvalues --  -12.69649 -12.69643 -12.69605 -12.69601 -12.69596
 Alpha  occ. eigenvalues --   -6.70086  -4.86435  -4.86435  -4.85899  -1.93824
 Alpha  occ. eigenvalues --   -1.93741  -1.93737  -1.22376  -1.21697  -1.21694
 Alpha  occ. eigenvalues --   -1.21306  -1.21139  -1.21066  -1.21063  -1.20644
 Alpha  occ. eigenvalues --   -1.20640  -1.06758  -1.00365  -1.00342  -0.90937
 Alpha  occ. eigenvalues --   -0.62642  -0.50530  -0.50523  -0.47960  -0.43358
 Alpha  occ. eigenvalues --   -0.43355  -0.38348  -0.38335  -0.38176  -0.36133
 Alpha  occ. eigenvalues --   -0.36130  -0.34589  -0.30860
 Alpha virt. eigenvalues --   -0.19950  -0.18028  -0.18025  -0.12555  -0.12552
 Alpha virt. eigenvalues --   -0.10893  -0.09478  -0.09477  -0.08339  -0.07772
 Alpha virt. eigenvalues --   -0.06545  -0.06114  -0.06114  -0.04765  -0.04716

 Mulliken atomic charges:
              1
     1  O   -1.032093
     2  O   -1.032469
     3  O   -1.032255
     4  O   -1.251077
     5  P    1.097974
     6  Ca   1.416497
     7  Ca   1.416619
     8  Ca   1.416805
 Sum of Mulliken charges=   1.00000

 Dipole moment (field-independent basis, Debye):
    X=     0.0095    Y=    -0.0072    Z=    -8.2290  Tot=     8.2290
 Quadrupole moment (field-independent basis, Debye-Ang):
   XX=   -40.0225   YY=   -40.0359   ZZ=   -90.0198
   XY=     0.0029   XZ=     0.0383   YZ=    -0.0419

 Normal termination of Gaussian 03 at Fri Jun 12 17:38:41 2015.
