 Gaussian 03, Revision E.01,
 Gaussian 03:  EM64T-G03RevE.01 11-Sep-2007

 ----------------------------------------------------
 # b3lyp/6-31+G(d,p) int=ultrafine pop=(ReadRadii,MK)
 ----------------------------------------------------

 --------------------------------------
 Ca3PO4_195.mol2c_plusQc.z51692.zip.xyz
 --------------------------------------
 Symbolic Z-matrix:
 Charge =  1 Multiplicity = 1

                         Standard orientation:
 ---------------------------------------------------------------------
 Center     Atomic     Atomic              Coordinates (Angstroms)
 Number     Number      Type              X           Y           Z
 ---------------------------------------------------------------------
    1          8             0        2.963591   -1.326958    0.005432
    2          8             0        0.888160    0.956912   -0.004458
    3          8             0       -3.361450    0.666251    0.014262
    4          8             0       -1.556669   -1.022899   -0.011438
    5         15             0       -3.112419   -0.852689    0.009502
    6         20             0        3.139390    0.795302    0.007762
    7         20             0        0.806551   -1.423648   -0.007238
    8         20             0       -1.185080    1.558541   -0.009168
 ---------------------------------------------------------------------

 SCF Done:  E(RB+HF-LYP) =  -2675.00688260     A.U. after   10 cycles

 The electronic state is 1-A.
 Alpha  occ. eigenvalues -- -145.52249-145.46957-145.45471 -77.31379 -19.29526
 Alpha  occ. eigenvalues --  -19.28776 -19.16998 -19.10495 -15.59158 -15.53855
 Alpha  occ. eigenvalues --  -15.52400 -12.72423 -12.72378 -12.72178 -12.67097
 Alpha  occ. eigenvalues --  -12.67012 -12.66934 -12.65669 -12.65578 -12.65443
 Alpha  occ. eigenvalues --   -6.76965  -4.93401  -4.93169  -4.92753  -1.96409
 Alpha  occ. eigenvalues --   -1.91146  -1.89815  -1.24341  -1.24332  -1.23297
 Alpha  occ. eigenvalues --   -1.19017  -1.18768  -1.18119  -1.17867  -1.17284
 Alpha  occ. eigenvalues --   -1.17057  -1.15052  -1.09395  -0.91724  -0.84463
 Alpha  occ. eigenvalues --   -0.68460  -0.57417  -0.54764  -0.54079  -0.46488
 Alpha  occ. eigenvalues --   -0.45040  -0.42668  -0.37827  -0.36772  -0.35780
 Alpha  occ. eigenvalues --   -0.30011  -0.28562  -0.28246
 Alpha virt. eigenvalues --   -0.21259  -0.20096  -0.17856  -0.15074  -0.12974
 Alpha virt. eigenvalues --   -0.11120  -0.10411  -0.10247  -0.09294  -0.08853
 Alpha virt. eigenvalues --   -0.08429  -0.07238  -0.06844  -0.06421  -0.05448

 Mulliken atomic charges:
              1
     1  O   -1.132494
     2  O   -1.321502
     3  O   -0.653351
     4  O   -0.742529
     5  P    0.675913
     6  Ca   1.347305
     7  Ca   1.327736
     8  Ca   1.498921
 Sum of Mulliken charges=   1.00000

 Dipole moment (field-independent basis, Debye):
    X=    -0.1881    Y=     8.1435    Z=    -0.0552  Tot=     8.1458
 Quadrupole moment (field-independent basis, Debye-Ang):
   XX=   -60.1313   YY=   -52.1489   ZZ=   -68.9239
   XY=    23.1996   XZ=     0.1904   YZ=     0.0076

 Normal termination of Gaussian 03 at Fri Jun 12 17:40:59 2015.
