 Gaussian 03, Revision E.01,
 Gaussian 03:  EM64T-G03RevE.01 11-Sep-2007

 ----------------------------------------------------
 # b3lyp/6-31+G(d,p) int=ultrafine pop=(ReadRadii,MK)
 ----------------------------------------------------

 -----------------------------------
 Ca3PO4_80.mol2_plusQ.z51497.zip.xyz
 -----------------------------------
 Symbolic Z-matrix:
 Charge =  1 Multiplicity = 1

                         Standard orientation:
 ---------------------------------------------------------------------
 Center     Atomic     Atomic              Coordinates (Angstroms)
 Number     Number      Type              X           Y           Z
 ---------------------------------------------------------------------
    1          8             0        0.949903    0.406068    0.828210
    2          8             0       -1.001071   -1.424118    0.854590
    3          8             0       -0.949897    0.412962   -0.823190
    4          8             0        0.991769   -1.426452   -0.854610
    5         15             0       -0.002429   -0.610340    0.001480
    6         20             0       -2.913179   -0.554604   -0.010730
    7         20             0        2.909051   -0.564316    0.007730
    8         20             0        0.009667    2.389290   -0.000110
 ---------------------------------------------------------------------

 SCF Done:  E(RB+HF-LYP) =  -2675.02389374     A.U. after   10 cycles

 The electronic state is 1-A.
 Alpha  occ. eigenvalues -- -145.53440-145.53372-145.51697 -77.32250 -19.24224
 Alpha  occ. eigenvalues --  -19.24191 -19.22123 -19.22109 -15.60326 -15.60258
 Alpha  occ. eigenvalues --  -15.58623 -12.73553 -12.73487 -12.73486 -12.73439
 Alpha  occ. eigenvalues --  -12.73419 -12.73372 -12.71839 -12.71780 -12.71731
 Alpha  occ. eigenvalues --   -6.76616  -4.93045  -4.92957  -4.92881  -1.97351
 Alpha  occ. eigenvalues --   -1.97285  -1.95705  -1.25068  -1.24944  -1.24881
 Alpha  occ. eigenvalues --   -1.24808  -1.24610  -1.24545  -1.23261  -1.23200
 Alpha  occ. eigenvalues --   -1.23018  -1.13449  -1.05315  -1.04508  -1.03720
 Alpha  occ. eigenvalues --   -0.63573  -0.55112  -0.54384  -0.53416  -0.48072
 Alpha  occ. eigenvalues --   -0.45549  -0.45057  -0.43197  -0.42769  -0.40360
 Alpha  occ. eigenvalues --   -0.39059  -0.37939  -0.25279
 Alpha virt. eigenvalues --   -0.22086  -0.20678  -0.15424  -0.13348  -0.13276
 Alpha virt. eigenvalues --   -0.12183  -0.11584  -0.11420  -0.10359  -0.08711
 Alpha virt. eigenvalues --   -0.07705  -0.07169  -0.06127  -0.05498  -0.05269

 Mulliken atomic charges:
              1
     1  O   -0.996780
     2  O   -0.807432
     3  O   -0.997571
     4  O   -0.807456
     5  P    1.778400
     6  Ca   0.903310
     7  Ca   0.904683
     8  Ca   1.022847
 Sum of Mulliken charges=   1.00000

 Dipole moment (field-independent basis, Debye):
    X=     0.0683    Y=     3.1888    Z=    -0.0097  Tot=     3.1895
 Quadrupole moment (field-independent basis, Debye-Ang):
   XX=   -11.1990   YY=   -69.6187   ZZ=   -88.7200
   XY=    -0.1483   XZ=     2.2591   YZ=     0.0271

 Normal termination of Gaussian 03 at Fri Jun 12 17:45:55 2015.
