 Gaussian 03, Revision E.01,
 Gaussian 03:  EM64T-G03RevE.01 11-Sep-2007

 ----------------------------------------------------
 # b3lyp/6-31+G(d,p) int=ultrafine pop=(ReadRadii,MK)
 ----------------------------------------------------

 ------------------------------------
 Ca3PO4_63.mol2c_plusQ.z51478.zip.xyz
 ------------------------------------
 Symbolic Z-matrix:
 Charge =  1 Multiplicity = 1

                         Standard orientation:
 ---------------------------------------------------------------------
 Center     Atomic     Atomic              Coordinates (Angstroms)
 Number     Number      Type              X           Y           Z
 ---------------------------------------------------------------------
    1          8             0       -0.166509    1.500347    1.363912
    2          8             0       -1.217199   -0.901403    1.361132
    3          8             0        0.000491   -0.000867   -0.687818
    4          8             0        1.388459   -0.610384    1.360012
    5         15             0        0.001491   -0.003517    1.064772
    6         20             0        2.183942   -0.947473   -0.721858
    7         20             0       -0.268586    2.364617   -0.715568
    8         20             0       -1.918570   -1.409583   -0.720048
 ---------------------------------------------------------------------

 SCF Done:  E(RB+HF-LYP) =  -2675.01213153     A.U. after   10 cycles

 The electronic state is 1-A.
 Alpha  occ. eigenvalues -- -145.53745-145.53739-145.53716 -77.32317 -19.26068
 Alpha  occ. eigenvalues --  -19.22409 -19.22398 -19.22372 -15.60638 -15.60633
 Alpha  occ. eigenvalues --  -15.60610 -12.73865 -12.73859 -12.73837 -12.73800
 Alpha  occ. eigenvalues --  -12.73794 -12.73772 -12.73745 -12.73739 -12.73717
 Alpha  occ. eigenvalues --   -6.76687  -4.93229  -4.92930  -4.92930  -1.97699
 Alpha  occ. eigenvalues --   -1.97691  -1.97671  -1.25656  -1.25317  -1.25305
 Alpha  occ. eigenvalues --   -1.25266  -1.25028  -1.25013  -1.24991  -1.24912
 Alpha  occ. eigenvalues --   -1.24895  -1.13299  -1.04681  -1.04671  -1.04452
 Alpha  occ. eigenvalues --   -0.63471  -0.55543  -0.53613  -0.53608  -0.47935
 Alpha  occ. eigenvalues --   -0.47927  -0.43439  -0.43433  -0.42224  -0.40369
 Alpha  occ. eigenvalues --   -0.40357  -0.37472  -0.26992
 Alpha virt. eigenvalues --   -0.22185  -0.22163  -0.15991  -0.15979  -0.14865
 Alpha virt. eigenvalues --   -0.12675  -0.11783  -0.11766  -0.11231  -0.08623
 Alpha virt. eigenvalues --   -0.08606  -0.07722  -0.05591  -0.05587  -0.05429

 Mulliken atomic charges:
              1
     1  O   -0.773631
     2  O   -0.773263
     3  O   -1.112390
     4  O   -0.773648
     5  P    1.353718
     6  Ca   1.028446
     7  Ca   1.024599
     8  Ca   1.026168
 Sum of Mulliken charges=   1.00000

 Dipole moment (field-independent basis, Debye):
    X=     0.0112    Y=     0.0050    Z=   -10.6810  Tot=    10.6810
 Quadrupole moment (field-independent basis, Debye-Ang):
   XX=   -46.4415   YY=   -46.6033   ZZ=   -93.5719
   XY=    -0.0100   XZ=    -0.0750   YZ=     0.1228

 Normal termination of Gaussian 03 at Fri Jun 12 17:44:46 2015.
