 Gaussian 03, Revision E.01,
 Gaussian 03:  EM64T-G03RevE.01 11-Sep-2007

 ----------------------------------------------------
 # b3lyp/6-31+G(d,p) int=ultrafine pop=(ReadRadii,MK)
 ----------------------------------------------------

 ------------------------------------
 Ca3PO4_27.mol2c_plusQ.z51438.zip.xyz
 ------------------------------------
 Symbolic Z-matrix:
 Charge =  1 Multiplicity = 1

                         Standard orientation:
 ---------------------------------------------------------------------
 Center     Atomic     Atomic              Coordinates (Angstroms)
 Number     Number      Type              X           Y           Z
 ---------------------------------------------------------------------
    1          8             0       -0.480156    1.435214   -1.361862
    2          8             0        0.000100    0.000050    0.687738
    3          8             0       -1.002620   -1.133891   -1.361702
    4          8             0        1.483485   -0.301802   -1.361582
    5         15             0        0.000210   -0.000130   -1.064812
    6         20             0        2.332522   -0.474633    0.719428
    7         20             0       -1.577713   -1.782263    0.719148
    8         20             0       -0.755290    2.257165    0.718998
 ---------------------------------------------------------------------

 SCF Done:  E(RB+HF-LYP) =  -2675.01212797     A.U. after   10 cycles

 The electronic state is 1-A.
 Alpha  occ. eigenvalues -- -145.53742-145.53731-145.53726 -77.32319 -19.26065
 Alpha  occ. eigenvalues --  -19.22408 -19.22397 -19.22381 -15.60636 -15.60625
 Alpha  occ. eigenvalues --  -15.60620 -12.73862 -12.73851 -12.73847 -12.73797
 Alpha  occ. eigenvalues --  -12.73786 -12.73782 -12.73742 -12.73731 -12.73727
 Alpha  occ. eigenvalues --   -6.76688  -4.93231  -4.92932  -4.92932  -1.97696
 Alpha  occ. eigenvalues --   -1.97684  -1.97679  -1.25656  -1.25314  -1.25305
 Alpha  occ. eigenvalues --   -1.25269  -1.25024  -1.25017  -1.24990  -1.24907
 Alpha  occ. eigenvalues --   -1.24900  -1.13300  -1.04681  -1.04675  -1.04453
 Alpha  occ. eigenvalues --   -0.63472  -0.55544  -0.53613  -0.53611  -0.47934
 Alpha  occ. eigenvalues --   -0.47932  -0.43438  -0.43436  -0.42225  -0.40366
 Alpha  occ. eigenvalues --   -0.40362  -0.37473  -0.26992
 Alpha virt. eigenvalues --   -0.22176  -0.22172  -0.15986  -0.15984  -0.14865
 Alpha virt. eigenvalues --   -0.12675  -0.11775  -0.11773  -0.11231  -0.08615
 Alpha virt. eigenvalues --   -0.08613  -0.07723  -0.05590  -0.05588  -0.05429

 Mulliken atomic charges:
              1
     1  O   -0.773625
     2  O   -1.112373
     3  O   -0.773270
     4  O   -0.773678
     5  P    1.353879
     6  Ca   1.026895
     7  Ca   1.025389
     8  Ca   1.026782
 Sum of Mulliken charges=   1.00000

 Dipole moment (field-independent basis, Debye):
    X=     0.0098    Y=     0.0177    Z=    10.6813  Tot=    10.6814
 Quadrupole moment (field-independent basis, Debye-Ang):
   XX=   -46.5168   YY=   -46.5315   ZZ=   -93.5737
   XY=    -0.0145   XZ=     0.0245   YZ=     0.0202

 Normal termination of Gaussian 03 at Fri Jun 12 17:42:59 2015.
