 Gaussian 03, Revision E.01,
 Gaussian 03:  EM64T-G03RevE.01 11-Sep-2007

 ----------------------------------------------------
 # b3lyp/6-31+G(d,p) int=ultrafine pop=(ReadRadii,MK)
 ----------------------------------------------------

 -------------------------------------
 Ca3PO4_176.mol2c_plusQ.z51183.zip.xyz
 -------------------------------------
 Symbolic Z-matrix:
 Charge =  1 Multiplicity = 1

                         Standard orientation:
 ---------------------------------------------------------------------
 Center     Atomic     Atomic              Coordinates (Angstroms)
 Number     Number      Type              X           Y           Z
 ---------------------------------------------------------------------
    1          8             0       -0.640387    1.279738   -0.645268
    2          8             0       -0.636915   -1.279162   -0.647458
    3          8             0        1.600089    0.001118    0.890302
    4          8             0       -2.612541   -0.003171    0.229802
    5         15             0       -1.683661   -0.000827   -1.047318
    6         20             0        1.441101    1.853987   -0.320568
    7         20             0       -0.707001   -0.000693    1.495632
    8         20             0        1.444547   -1.852083   -0.320528
 ---------------------------------------------------------------------

 SCF Done:  E(RB+HF-LYP) =  -2674.99238513     A.U. after   12 cycles

 The electronic state is 1-A.
 Alpha  occ. eigenvalues -- -145.52685-145.52683-145.48402 -77.22978 -19.19978
 Alpha  occ. eigenvalues --  -19.19977 -19.18603 -19.17076 -15.59567 -15.59565
 Alpha  occ. eigenvalues --  -15.55261 -12.72821 -12.72819 -12.72708 -12.72705
 Alpha  occ. eigenvalues --  -12.72664 -12.72662 -12.68491 -12.68468 -12.68338
 Alpha  occ. eigenvalues --   -6.68036  -4.84419  -4.84346  -4.83921  -1.96792
 Alpha  occ. eigenvalues --   -1.96772  -1.92520  -1.24741  -1.24691  -1.24327
 Alpha  occ. eigenvalues --   -1.24036  -1.23878  -1.23566  -1.20497  -1.20270
 Alpha  occ. eigenvalues --   -1.19455  -1.04964  -0.98324  -0.97811  -0.93204
 Alpha  occ. eigenvalues --   -0.60529  -0.49475  -0.46934  -0.46008  -0.41570
 Alpha  occ. eigenvalues --   -0.40502  -0.38844  -0.38621  -0.36267  -0.36097
 Alpha  occ. eigenvalues --   -0.35229  -0.33070  -0.29228
 Alpha virt. eigenvalues --   -0.22769  -0.20828  -0.17385  -0.15244  -0.13924
 Alpha virt. eigenvalues --   -0.12457  -0.11028  -0.10924  -0.09523  -0.07773
 Alpha virt. eigenvalues --   -0.07282  -0.06935  -0.06412  -0.05179  -0.05033

 Mulliken atomic charges:
              1
     1  O   -0.983325
     2  O   -0.983367
     3  O   -1.199586
     4  O   -0.848175
     5  P    1.164849
     6  Ca   1.419233
     7  Ca   1.011190
     8  Ca   1.419181
 Sum of Mulliken charges=   1.00000

 Dipole moment (field-independent basis, Debye):
    X=    14.3509    Y=     0.0078    Z=     2.3038  Tot=    14.5346
 Quadrupole moment (field-independent basis, Debye-Ang):
   XX=   -74.5295   YY=   -34.5262   ZZ=   -61.5542
   XY=    -0.0376   XZ=   -22.0606   YZ=    -0.0242

 Normal termination of Gaussian 03 at Fri Jun 12 17:40:25 2015.
