 Gaussian 03, Revision E.01,
 Gaussian 03:  EM64T-G03RevE.01 11-Sep-2007

 ----------------------------------------------------
 # b3lyp/6-31+G(d,p) int=ultrafine pop=(ReadRadii,MK)
 ----------------------------------------------------

 ------------------------------------
 Ca3PO4_99.mol2c_plusQ.z51517.zip.xyz
 ------------------------------------
 Symbolic Z-matrix:
 Charge =  1 Multiplicity = 1

                         Standard orientation:
 ---------------------------------------------------------------------
 Center     Atomic     Atomic              Coordinates (Angstroms)
 Number     Number      Type              X           Y           Z
 ---------------------------------------------------------------------
    1          8             0       -0.979341   -1.429958   -0.853991
    2          8             0        1.013619   -1.420588    0.855069
    3          8             0       -0.949980    0.397092    0.834829
    4          8             0        0.949650    0.421832   -0.816591
    5         15             0        0.008869   -0.610358    0.005719
    6         20             0       -2.903581   -0.576997    0.003429
    7         20             0       -0.035120    2.389112   -0.000401
    8         20             0        2.918469   -0.541698   -0.015041
 ---------------------------------------------------------------------

 SCF Done:  E(RB+HF-LYP) =  -2675.02389793     A.U. after   10 cycles

 The electronic state is 1-A.
 Alpha  occ. eigenvalues -- -145.53474-145.53287-145.51736 -77.32269 -19.24232
 Alpha  occ. eigenvalues --  -19.24203 -19.22173 -19.22075 -15.60361 -15.60177
 Alpha  occ. eigenvalues --  -15.58660 -12.73589 -12.73521 -12.73474 -12.73404
 Alpha  occ. eigenvalues --  -12.73338 -12.73290 -12.71877 -12.71817 -12.71769
 Alpha  occ. eigenvalues --   -6.76634  -4.93062  -4.92975  -4.92899  -1.97389
 Alpha  occ. eigenvalues --   -1.97210  -1.95737  -1.25076  -1.24981  -1.24815
 Alpha  occ. eigenvalues --   -1.24763  -1.24647  -1.24473  -1.23293  -1.23228
 Alpha  occ. eigenvalues --   -1.23049  -1.13458  -1.05324  -1.04516  -1.03727
 Alpha  occ. eigenvalues --   -0.63581  -0.55121  -0.54392  -0.53422  -0.48081
 Alpha  occ. eigenvalues --   -0.45556  -0.45065  -0.43204  -0.42774  -0.40368
 Alpha  occ. eigenvalues --   -0.39062  -0.37943  -0.25280
 Alpha virt. eigenvalues --   -0.22081  -0.20679  -0.15425  -0.13345  -0.13279
 Alpha virt. eigenvalues --   -0.12177  -0.11584  -0.11418  -0.10355  -0.08710
 Alpha virt. eigenvalues --   -0.07707  -0.07170  -0.06125  -0.05498  -0.05270

 Mulliken atomic charges:
              1
     1  O   -0.807021
     2  O   -0.807803
     3  O   -0.995978
     4  O   -0.997949
     5  P    1.777163
     6  Ca   0.905580
     7  Ca   1.018159
     8  Ca   0.907850
 Sum of Mulliken charges=   1.00000

 Dipole moment (field-independent basis, Debye):
    X=    -0.0896    Y=     3.1026    Z=    -0.0500  Tot=     3.1043
 Quadrupole moment (field-independent basis, Debye-Ang):
   XX=   -10.8212   YY=   -69.8261   ZZ=   -88.7165
   XY=     0.5161   XZ=    -2.2661   YZ=     0.1072

 Normal termination of Gaussian 03 at Fri Jun 12 17:47:06 2015.
