 Gaussian 03, Revision E.01,
 Gaussian 03:  EM64T-G03RevE.01 11-Sep-2007

 ----------------------------------------------------
 # b3lyp/6-31+G(d,p) int=ultrafine pop=(ReadRadii,MK)
 ----------------------------------------------------

 -----------------------------------
 Ca3PO4_21.mol2_plusQ.z51431.zip.xyz
 -----------------------------------
 Symbolic Z-matrix:
 Charge =  1 Multiplicity = 1

                         Standard orientation:
 ---------------------------------------------------------------------
 Center     Atomic     Atomic              Coordinates (Angstroms)
 Number     Number      Type              X           Y           Z
 ---------------------------------------------------------------------
    1          8             0        1.272934    0.757495    0.921909
    2          8             0       -1.291518    0.725261    0.921969
    3          8             0        0.000026   -0.001395   -1.711871
    4          8             0        0.018586   -1.479953    0.922909
    5         15             0        0.000008    0.002042    1.718059
    6         20             0        1.697338   -0.952392   -0.569281
    7         20             0       -1.672910   -0.994709   -0.569261
    8         20             0       -0.024445    1.945005   -0.571971
 ---------------------------------------------------------------------

 SCF Done:  E(RB+HF-LYP) =  -2675.07103895     A.U. after    8 cycles

 The electronic state is 1-A.
 Alpha  occ. eigenvalues -- -145.49639-145.49633-145.49632 -77.25053 -19.21251
 Alpha  occ. eigenvalues --  -19.21250 -19.21165 -19.15940 -15.56472 -15.56469
 Alpha  occ. eigenvalues --  -15.56468 -12.69669 -12.69668 -12.69667 -12.69647
 Alpha  occ. eigenvalues --  -12.69646 -12.69644 -12.69599 -12.69598 -12.69597
 Alpha  occ. eigenvalues --   -6.70083  -4.86432  -4.86432  -4.85895  -1.93821
 Alpha  occ. eigenvalues --   -1.93737  -1.93736  -1.22375  -1.21694  -1.21692
 Alpha  occ. eigenvalues --   -1.21304  -1.21137  -1.21063  -1.21061  -1.20640
 Alpha  occ. eigenvalues --   -1.20640  -1.06754  -1.00373  -1.00329  -0.90937
 Alpha  occ. eigenvalues --   -0.62642  -0.50530  -0.50519  -0.47957  -0.43356
 Alpha  occ. eigenvalues --   -0.43353  -0.38354  -0.38329  -0.38176  -0.36134
 Alpha  occ. eigenvalues --   -0.36130  -0.34588  -0.30859
 Alpha virt. eigenvalues --   -0.19948  -0.18025  -0.18025  -0.12553  -0.12552
 Alpha virt. eigenvalues --   -0.10893  -0.09477  -0.09477  -0.08338  -0.07771
 Alpha virt. eigenvalues --   -0.06545  -0.06114  -0.06113  -0.04765  -0.04716

 Mulliken atomic charges:
              1
     1  O   -1.032322
     2  O   -1.032329
     3  O   -1.251080
     4  O   -1.031952
     5  P    1.097963
     6  Ca   1.416634
     7  Ca   1.416635
     8  Ca   1.416451
 Sum of Mulliken charges=   1.00000

 Dipole moment (field-independent basis, Debye):
    X=    -0.0002    Y=    -0.0129    Z=    -8.2275  Tot=     8.2275
 Quadrupole moment (field-independent basis, Debye-Ang):
   XX=   -40.0273   YY=   -40.0412   ZZ=   -90.0135
   XY=    -0.0002   XZ=     0.0007   YZ=    -0.0450

 Normal termination of Gaussian 03 at Fri Jun 12 17:42:18 2015.
