 Gaussian 03, Revision E.01,
 Gaussian 03:  EM64T-G03RevE.01 11-Sep-2007

 ----------------------------------------------------
 # b3lyp/6-31+G(d,p) int=ultrafine pop=(ReadRadii,MK)
 ----------------------------------------------------

 -------------------------------------
 Ca3PO4_143.mol2c_plusQ.z51147.zip.xyz
 -------------------------------------
 Symbolic Z-matrix:
 Charge =  1 Multiplicity = 1

                         Standard orientation:
 ---------------------------------------------------------------------
 Center     Atomic     Atomic              Coordinates (Angstroms)
 Number     Number      Type              X           Y           Z
 ---------------------------------------------------------------------
    1          8             0        0.234774   -1.462018    0.922461
    2          8             0       -0.000162   -0.000170   -1.712009
    3          8             0        1.148927    0.934345    0.922481
    4          8             0       -1.383363    0.527840    0.922821
    5         15             0        0.000269   -0.000052    1.718181
    6         20             0       -0.308500    1.921222   -0.570339
    7         20             0        1.818112   -0.693537   -0.570469
    8         20             0       -1.509884   -1.227645   -0.570129
 ---------------------------------------------------------------------

 SCF Done:  E(RB+HF-LYP) =  -2675.07104105     A.U. after    8 cycles

 The electronic state is 1-A.
 Alpha  occ. eigenvalues -- -145.49643-145.49637-145.49637 -77.25055 -19.21224
 Alpha  occ. eigenvalues --  -19.21222 -19.21222 -19.15944 -15.56476 -15.56473
 Alpha  occ. eigenvalues --  -15.56472 -12.69673 -12.69672 -12.69672 -12.69651
 Alpha  occ. eigenvalues --  -12.69650 -12.69648 -12.69603 -12.69603 -12.69602
 Alpha  occ. eigenvalues --   -6.70084  -4.86433  -4.86433  -4.85897  -1.93825
 Alpha  occ. eigenvalues --   -1.93740  -1.93740  -1.22378  -1.21697  -1.21696
 Alpha  occ. eigenvalues --   -1.21308  -1.21141  -1.21066  -1.21066  -1.20644
 Alpha  occ. eigenvalues --   -1.20644  -1.06760  -1.00356  -1.00354  -0.90941
 Alpha  occ. eigenvalues --   -0.62640  -0.50527  -0.50526  -0.47961  -0.43357
 Alpha  occ. eigenvalues --   -0.43357  -0.38342  -0.38341  -0.38175  -0.36137
 Alpha  occ. eigenvalues --   -0.36136  -0.34592  -0.30857
 Alpha virt. eigenvalues --   -0.19951  -0.18028  -0.18027  -0.12556  -0.12555
 Alpha virt. eigenvalues --   -0.10894  -0.09478  -0.09477  -0.08339  -0.07773
 Alpha virt. eigenvalues --   -0.06545  -0.06115  -0.06114  -0.04764  -0.04715

 Mulliken atomic charges:
              1
     1  O   -1.032168
     2  O   -1.251069
     3  O   -1.032239
     4  O   -1.032235
     5  P    1.097985
     6  Ca   1.416555
     7  Ca   1.416599
     8  Ca   1.416572
 Sum of Mulliken charges=   1.00000

 Dipole moment (field-independent basis, Debye):
    X=    -0.0014    Y=    -0.0002    Z=    -8.2338  Tot=     8.2338
 Quadrupole moment (field-independent basis, Debye-Ang):
   XX=   -40.0275   YY=   -40.0372   ZZ=   -90.0193
   XY=    -0.0005   XZ=    -0.0042   YZ=    -0.0042

 Normal termination of Gaussian 03 at Fri Jun 12 17:37:47 2015.
