 Gaussian 03, Revision E.01,
 Gaussian 03:  EM64T-G03RevE.01 11-Sep-2007

 ----------------------------------------------------
 # b3lyp/6-31+G(d,p) int=ultrafine pop=(ReadRadii,MK)
 ----------------------------------------------------

 -------------------------------------
 Ca3PO4_92.mol2cc_plusQ.z51510.zip.xyz
 -------------------------------------
 Symbolic Z-matrix:
 Charge =  1 Multiplicity = 1

                         Standard orientation:
 ---------------------------------------------------------------------
 Center     Atomic     Atomic              Coordinates (Angstroms)
 Number     Number      Type              X           Y           Z
 ---------------------------------------------------------------------
    1          8             0       -0.889750    0.988442    0.324461
    2          8             0       -0.210902   -1.466918    0.605791
    3          8             0       -2.385570    0.921034    0.411221
    4          8             0        1.425910    0.409641    0.853101
    5         15             0       -0.002151   -0.089178    1.485411
    6         20             0       -1.944021   -0.900097   -0.822949
    7         20             0        1.875628   -1.463580   -0.488909
    8         20             0        0.894131    2.089681   -0.680029
 ---------------------------------------------------------------------

 SCF Done:  E(RB+HF-LYP) =  -2674.86109883     A.U. after   12 cycles

 The electronic state is 1-A.
 Alpha  occ. eigenvalues -- -145.54058-145.52990-145.52974 -77.28679 -19.31264
 Alpha  occ. eigenvalues --  -19.25031 -19.24959 -19.24869 -15.60935 -15.59911
 Alpha  occ. eigenvalues --  -15.59845 -12.74145 -12.74109 -12.74052 -12.73119
 Alpha  occ. eigenvalues --  -12.73081 -12.73076 -12.73016 -12.73007 -12.72963
 Alpha  occ. eigenvalues --   -6.73840  -4.90267  -4.90135  -4.89551  -1.97970
 Alpha  occ. eigenvalues --   -1.97026  -1.96973  -1.25815  -1.25392  -1.25351
 Alpha  occ. eigenvalues --   -1.24927  -1.24611  -1.24515  -1.24399  -1.24390
 Alpha  occ. eigenvalues --   -1.24132  -1.15561  -1.09451  -1.04731  -0.92310
 Alpha  occ. eigenvalues --   -0.67258  -0.56998  -0.55383  -0.53936  -0.51271
 Alpha  occ. eigenvalues --   -0.48959  -0.45760  -0.44017  -0.41723  -0.37943
 Alpha  occ. eigenvalues --   -0.35431  -0.34907  -0.27145
 Alpha virt. eigenvalues --   -0.21748  -0.20864  -0.16384  -0.14790  -0.13883
 Alpha virt. eigenvalues --   -0.12408  -0.11954  -0.11152  -0.11012  -0.09937
 Alpha virt. eigenvalues --   -0.09244  -0.07925  -0.07403  -0.07029  -0.06546

 Mulliken atomic charges:
              1
     1  O   -0.557347
     2  O   -0.922288
     3  O   -0.566370
     4  O   -0.847273
     5  P    0.957774
     6  Ca   1.221439
     7  Ca   0.666696
     8  Ca   1.047369
 Sum of Mulliken charges=   1.00000

 Dipole moment (field-independent basis, Debye):
    X=     2.6755    Y=    -2.0493    Z=    -6.7166  Tot=     7.5146
 Quadrupole moment (field-independent basis, Debye-Ang):
   XX=   -56.1078   YY=   -48.0283   ZZ=   -86.9785
   XY=    10.5488   XZ=    10.0946   YZ=    -0.2505

 Normal termination of Gaussian 03 at Fri Jun 12 17:46:39 2015.
