 Gaussian 03, Revision E.01,
 Gaussian 03:  EM64T-G03RevE.01 11-Sep-2007

 ----------------------------------------------------
 # b3lyp/6-31+G(d,p) int=ultrafine pop=(ReadRadii,MK)
 ----------------------------------------------------

 ------------------------------------
 Ca3PO4_73.mol2c_plusQ.z51489.zip.xyz
 ------------------------------------
 Symbolic Z-matrix:
 Charge =  1 Multiplicity = 1

                         Standard orientation:
 ---------------------------------------------------------------------
 Center     Atomic     Atomic              Coordinates (Angstroms)
 Number     Number      Type              X           Y           Z
 ---------------------------------------------------------------------
    1          8             0        1.036141   -0.763872    1.150871
    2          8             0        1.244051    0.787558    1.224521
    3          8             0       -1.252019   -0.575901   -0.138569
    4          8             0        0.968481   -0.272032   -1.295889
    5         15             0        0.178620   -1.307691   -0.306319
    6         20             0       -3.468199   -0.217030    0.180091
    7         20             0       -0.375098    1.607509   -0.293049
    8         20             0        2.910671   -0.080012   -0.033679
 ---------------------------------------------------------------------

 SCF Done:  E(RB+HF-LYP) =  -2674.87178684     A.U. after   12 cycles

 The electronic state is 1-A.
 Alpha  occ. eigenvalues -- -145.55104-145.51369-145.50359 -77.27604 -19.30427
 Alpha  occ. eigenvalues --  -19.26900 -19.24326 -19.23356 -15.61914 -15.58315
 Alpha  occ. eigenvalues --  -15.57256 -12.75136 -12.75075 -12.75051 -12.71502
 Alpha  occ. eigenvalues --  -12.71497 -12.71402 -12.70461 -12.70422 -12.70383
 Alpha  occ. eigenvalues --   -6.72828  -4.89246  -4.89123  -4.88605  -1.98998
 Alpha  occ. eigenvalues --   -1.95370  -1.94431  -1.26988  -1.26561  -1.26239
 Alpha  occ. eigenvalues --   -1.22917  -1.22788  -1.22644  -1.22092  -1.21873
 Alpha  occ. eigenvalues --   -1.21776  -1.13964  -1.08288  -1.03815  -0.94574
 Alpha  occ. eigenvalues --   -0.66264  -0.56520  -0.53705  -0.53121  -0.49732
 Alpha  occ. eigenvalues --   -0.48742  -0.44428  -0.41626  -0.41242  -0.39072
 Alpha  occ. eigenvalues --   -0.37660  -0.35368  -0.25484
 Alpha virt. eigenvalues --   -0.22699  -0.19553  -0.16338  -0.14082  -0.13108
 Alpha virt. eigenvalues --   -0.12968  -0.12610  -0.11093  -0.10150  -0.09529
 Alpha virt. eigenvalues --   -0.07736  -0.07366  -0.06684  -0.06558  -0.06134

 Mulliken atomic charges:
              1
     1  O   -0.474876
     2  O   -0.621869
     3  O   -0.925247
     4  O   -0.925342
     5  P    1.132911
     6  Ca   0.499719
     7  Ca   1.089860
     8  Ca   1.224844
 Sum of Mulliken charges=   1.00000

 Dipole moment (field-independent basis, Debye):
    X=     4.4168    Y=     2.1782    Z=    -1.7843  Tot=     5.2380
 Quadrupole moment (field-independent basis, Debye-Ang):
   XX=    -3.6107   YY=   -74.0424   ZZ=   -91.5084
   XY=     5.7683   XZ=    -5.5660   YZ=    -4.6075

 Normal termination of Gaussian 03 at Fri Jun 12 17:45:54 2015.
