 Gaussian 03, Revision E.01,
 Gaussian 03:  EM64T-G03RevE.01 11-Sep-2007

 ----------------------------------------------------
 # b3lyp/6-31+G(d,p) int=ultrafine pop=(ReadRadii,MK)
 ----------------------------------------------------

 -------------------------------------
 Ca3PO4_185.mol2c_plusQ.z51193.zip.xyz
 -------------------------------------
 Symbolic Z-matrix:
 Charge =  1 Multiplicity = 1

                         Standard orientation:
 ---------------------------------------------------------------------
 Center     Atomic     Atomic              Coordinates (Angstroms)
 Number     Number      Type              X           Y           Z
 ---------------------------------------------------------------------
    1          8             0        1.199229    0.867413    0.923420
    2          8             0       -1.352114    0.602548    0.923140
    3          8             0        0.153119   -1.474184    0.920420
    4          8             0       -0.000122    0.002483   -1.712280
    5         15             0        0.000805   -0.002390    1.718040
    6         20             0        1.776499   -0.793056   -0.571470
    7         20             0       -0.200865    1.936105   -0.568020
    8         20             0       -1.576283   -1.140561   -0.570920
 ---------------------------------------------------------------------

 SCF Done:  E(RB+HF-LYP) =  -2675.07103572     A.U. after    8 cycles

 The electronic state is 1-A.
 Alpha  occ. eigenvalues -- -145.49641-145.49636-145.49632 -77.25057 -19.21268
 Alpha  occ. eigenvalues --  -19.21226 -19.21179 -19.15937 -15.56475 -15.56471
 Alpha  occ. eigenvalues --  -15.56467 -12.69673 -12.69670 -12.69666 -12.69651
 Alpha  occ. eigenvalues --  -12.69648 -12.69643 -12.69603 -12.69600 -12.69596
 Alpha  occ. eigenvalues --   -6.70086  -4.86435  -4.86435  -4.85899  -1.93823
 Alpha  occ. eigenvalues --   -1.93740  -1.93736  -1.22377  -1.21696  -1.21693
 Alpha  occ. eigenvalues --   -1.21305  -1.21139  -1.21066  -1.21062  -1.20643
 Alpha  occ. eigenvalues --   -1.20639  -1.06758  -1.00376  -1.00335  -0.90933
 Alpha  occ. eigenvalues --   -0.62644  -0.50534  -0.50522  -0.47961  -0.43359
 Alpha  occ. eigenvalues --   -0.43356  -0.38356  -0.38332  -0.38179  -0.36131
 Alpha  occ. eigenvalues --   -0.36128  -0.34586  -0.30859
 Alpha virt. eigenvalues --   -0.19949  -0.18026  -0.18024  -0.12554  -0.12552
 Alpha virt. eigenvalues --   -0.10893  -0.09478  -0.09476  -0.08338  -0.07771
 Alpha virt. eigenvalues --   -0.06545  -0.06114  -0.06113  -0.04765  -0.04716

 Mulliken atomic charges:
              1
     1  O   -1.032502
     2  O   -1.031977
     3  O   -1.032161
     4  O   -1.250945
     5  P    1.097875
     6  Ca   1.416552
     7  Ca   1.416585
     8  Ca   1.416573
 Sum of Mulliken charges=   1.00000

 Dipole moment (field-independent basis, Debye):
    X=    -0.0033    Y=     0.0119    Z=    -8.2262  Tot=     8.2263
 Quadrupole moment (field-independent basis, Debye-Ang):
   XX=   -40.0276   YY=   -40.0416   ZZ=   -90.0242
   XY=     0.0024   XZ=    -0.0095   YZ=     0.0573

 Normal termination of Gaussian 03 at Fri Jun 12 17:40:22 2015.
