 Gaussian 03, Revision E.01,
 Gaussian 03:  EM64T-G03RevE.01 11-Sep-2007

 ----------------------------------------------------
 # b3lyp/6-31+G(d,p) int=ultrafine pop=(ReadRadii,MK)
 ----------------------------------------------------

 -------------------------------------
 Ca3PO4_93.mol2cc_plusQ.z51511.zip.xyz
 -------------------------------------
 Symbolic Z-matrix:
 Charge =  1 Multiplicity = 1

                         Standard orientation:
 ---------------------------------------------------------------------
 Center     Atomic     Atomic              Coordinates (Angstroms)
 Number     Number      Type              X           Y           Z
 ---------------------------------------------------------------------
    1          8             0       -0.787068    0.562131   -0.654880
    2          8             0       -3.779998   -0.441860    0.073410
    3          8             0       -2.460718   -0.746910    0.783950
    4          8             0       -0.081168   -1.677719    0.304230
    5         15             0       -1.336778   -1.120749   -0.476350
    6         20             0       -2.719659    1.471550    0.109320
    7         20             0        1.349162   -0.020928   -0.069800
    8         20             0        5.216662    0.311683    0.115060
 ---------------------------------------------------------------------

 SCF Done:  E(RB+HF-LYP) =  -2674.81795219     A.U. after    8 cycles

 The electronic state is 1-A.
 Alpha  occ. eigenvalues -- -145.55928-145.51167-145.50851 -77.23523 -19.26057
 Alpha  occ. eigenvalues --  -19.21301 -19.20980 -19.19542 -15.62984 -15.58022
 Alpha  occ. eigenvalues --  -15.57808 -12.76123 -12.76122 -12.76105 -12.71254
 Alpha  occ. eigenvalues --  -12.71194 -12.71123 -12.71055 -12.70969 -12.70884
 Alpha  occ. eigenvalues --   -6.68789  -4.85161  -4.85108  -4.84543  -2.00037
 Alpha  occ. eigenvalues --   -1.95219  -1.95083  -1.27298  -1.27295  -1.27119
 Alpha  occ. eigenvalues --   -1.23419  -1.22932  -1.22857  -1.22561  -1.22481
 Alpha  occ. eigenvalues --   -1.22211  -1.10629  -1.03902  -0.99128  -0.88182
 Alpha  occ. eigenvalues --   -0.62060  -0.51147  -0.49585  -0.48662  -0.44905
 Alpha  occ. eigenvalues --   -0.43501  -0.41100  -0.38494  -0.36915  -0.32470
 Alpha  occ. eigenvalues --   -0.31710  -0.31200  -0.30283
 Alpha virt. eigenvalues --   -0.21246  -0.19740  -0.17411  -0.17192  -0.13844
 Alpha virt. eigenvalues --   -0.11832  -0.10991  -0.10732  -0.09934  -0.09371
 Alpha virt. eigenvalues --   -0.07828  -0.07026  -0.06575  -0.05839  -0.05750

 Mulliken atomic charges:
              1
     1  O   -1.090033
     2  O   -0.552473
     3  O   -0.454440
     4  O   -0.853503
     5  P    0.882674
     6  Ca   1.397169
     7  Ca   1.027600
     8  Ca   0.643007
 Sum of Mulliken charges=   1.00000

 Dipole moment (field-independent basis, Debye):
    X=    15.1951    Y=    13.3237    Z=     0.6804  Tot=    20.2207
 Quadrupole moment (field-independent basis, Debye-Ang):
   XX=    19.4140   YY=   -69.0073   ZZ=   -81.4475
   XY=   -29.6484   XZ=     1.1854   YZ=     5.6646

 Normal termination of Gaussian 03 at Fri Jun 12 17:46:02 2015.
