 Gaussian 03, Revision E.01,
 Gaussian 03:  EM64T-G03RevE.01 11-Sep-2007

 ----------------------------------------------------
 # b3lyp/6-31+G(d,p) int=ultrafine pop=(ReadRadii,MK)
 ----------------------------------------------------

 -------------------------------------
 Ca3PO4_161.mol2c_plusQ.z51167.zip.xyz
 -------------------------------------
 Symbolic Z-matrix:
 Charge =  1 Multiplicity = 1

                         Standard orientation:
 ---------------------------------------------------------------------
 Center     Atomic     Atomic              Coordinates (Angstroms)
 Number     Number      Type              X           Y           Z
 ---------------------------------------------------------------------
    1          8             0       -1.669898   -1.510470   -0.003579
    2          8             0       -2.938157    0.669400    0.011111
    3          8             0        0.827973    0.942099   -0.004619
    4          8             0        2.838252   -1.416331    0.006321
    5         15             0       -3.071568   -0.877330   -0.001329
    6         20             0        0.669962   -1.459401   -0.001489
    7         20             0        3.082633    0.689499    0.000401
    8         20             0       -1.072187    1.954020   -0.001609
 ---------------------------------------------------------------------

 SCF Done:  E(RB+HF-LYP) =  -2675.00577585     A.U. after   10 cycles

 The electronic state is 1-A.
 Alpha  occ. eigenvalues -- -145.53297-145.47062-145.44456 -77.29374 -19.27558
 Alpha  occ. eigenvalues --  -19.27154 -19.17722 -19.10346 -15.60189 -15.53962
 Alpha  occ. eigenvalues --  -15.51415 -12.73445 -12.73391 -12.73233 -12.67202
 Alpha  occ. eigenvalues --  -12.67120 -12.67041 -12.64691 -12.64600 -12.64445
 Alpha  occ. eigenvalues --   -6.74923  -4.91363  -4.91139  -4.90702  -1.97386
 Alpha  occ. eigenvalues --   -1.91260  -1.88867  -1.25238  -1.25081  -1.24258
 Alpha  occ. eigenvalues --   -1.19127  -1.18802  -1.18220  -1.16973  -1.16362
 Alpha  occ. eigenvalues --   -1.16250  -1.13216  -1.07823  -0.92341  -0.84307
 Alpha  occ. eigenvalues --   -0.66958  -0.56428  -0.52364  -0.52159  -0.45120
 Alpha  occ. eigenvalues --   -0.43220  -0.40521  -0.38465  -0.37492  -0.36329
 Alpha  occ. eigenvalues --   -0.29838  -0.28430  -0.28134
 Alpha virt. eigenvalues --   -0.21410  -0.19347  -0.18297  -0.14032  -0.13476
 Alpha virt. eigenvalues --   -0.11772  -0.10628  -0.10448  -0.08670  -0.08512
 Alpha virt. eigenvalues --   -0.07769  -0.07169  -0.06429  -0.06114  -0.05568

 Mulliken atomic charges:
              1
     1  O   -0.683048
     2  O   -0.721106
     3  O   -1.346299
     4  O   -1.119217
     5  P    0.671228
     6  Ca   1.348243
     7  Ca   1.325306
     8  Ca   1.524894
 Sum of Mulliken charges=   1.00000

 Dipole moment (field-independent basis, Debye):
    X=     0.3906    Y=    11.5074    Z=    -0.0463  Tot=    11.5141
 Quadrupole moment (field-independent basis, Debye-Ang):
   XX=   -59.0343   YY=   -46.7569   ZZ=   -69.1180
   XY=    17.4048   XZ=    -0.0015   YZ=     0.0215

 Normal termination of Gaussian 03 at Fri Jun 12 17:39:05 2015.
