 Gaussian 03, Revision E.01,
 Gaussian 03:  EM64T-G03RevE.01 11-Sep-2007

 ----------------------------------------------------
 # b3lyp/6-31+G(d,p) int=ultrafine pop=(ReadRadii,MK)
 ----------------------------------------------------

 -----------------------------------
 Ca3PO4_28.mol2_plusQ.z51439.zip.xyz
 -----------------------------------
 Symbolic Z-matrix:
 Charge =  1 Multiplicity = 1

                         Standard orientation:
 ---------------------------------------------------------------------
 Center     Atomic     Atomic              Coordinates (Angstroms)
 Number     Number      Type              X           Y           Z
 ---------------------------------------------------------------------
    1          8             0        2.238541    0.000583    1.331692
    2          8             0        0.586333   -1.253780   -0.107378
    3          8             0        0.588229    1.253610   -0.111528
    4          8             0       -2.692859    0.000695   -0.332848
    5         15             0        0.691441    0.001400    1.034292
    6         20             0       -1.624607   -1.817703   -0.075848
    7         20             0       -1.622542    1.818077   -0.076368
    8         20             0        2.440471   -0.001867   -0.935478
 ---------------------------------------------------------------------

 SCF Done:  E(RB+HF-LYP) =  -2674.99967953     A.U. after    8 cycles

 The electronic state is 1-A.
 Alpha  occ. eigenvalues -- -145.52900-145.48522-145.48514 -77.24514 -19.21567
 Alpha  occ. eigenvalues --  -19.21552 -19.18917 -19.12187 -15.59696 -15.55425
 Alpha  occ. eigenvalues --  -15.55417 -12.72879 -12.72874 -12.72863 -12.68678
 Alpha  occ. eigenvalues --  -12.68670 -12.68609 -12.68601 -12.68484 -12.68476
 Alpha  occ. eigenvalues --   -6.69830  -4.86210  -4.86133  -4.85712  -1.96740
 Alpha  occ. eigenvalues --   -1.92689  -1.92662  -1.24717  -1.24002  -1.23965
 Alpha  occ. eigenvalues --   -1.20597  -1.20526  -1.20411  -1.20155  -1.19796
 Alpha  occ. eigenvalues --   -1.19304  -1.06954  -0.99981  -0.99927  -0.86571
 Alpha  occ. eigenvalues --   -0.61882  -0.49711  -0.49548  -0.48423  -0.42892
 Alpha  occ. eigenvalues --   -0.42358  -0.38149  -0.37921  -0.34579  -0.32848
 Alpha  occ. eigenvalues --   -0.32540  -0.30664  -0.30262
 Alpha virt. eigenvalues --   -0.20426  -0.18306  -0.17397  -0.12506  -0.11991
 Alpha virt. eigenvalues --   -0.10384  -0.10049  -0.08960  -0.08368  -0.08012
 Alpha virt. eigenvalues --   -0.07399  -0.06924  -0.06468  -0.05555  -0.05312

 Mulliken atomic charges:
              1
     1  O   -0.880143
     2  O   -0.957587
     3  O   -0.957233
     4  O   -1.183389
     5  P    0.749593
     6  Ca   1.424253
     7  Ca   1.423982
     8  Ca   1.380524
 Sum of Mulliken charges=   1.00000

 Dipole moment (field-independent basis, Debye):
    X=     1.5133    Y=    -0.0175    Z=    -7.4988  Tot=     7.6500
 Quadrupole moment (field-independent basis, Debye-Ang):
   XX=   -53.1292   YY=   -32.3148   ZZ=   -70.0801
   XY=    -0.0091   XZ=   -28.1101   YZ=     0.0234

 Normal termination of Gaussian 03 at Fri Jun 12 17:42:37 2015.
