 Gaussian 03, Revision E.01,
 Gaussian 03:  EM64T-G03RevE.01 11-Sep-2007

 ----------------------------------------------------
 # b3lyp/6-31+G(d,p) int=ultrafine pop=(ReadRadii,MK)
 ----------------------------------------------------

 -------------------------------------
 Ca3PO4_153.mol2c_plusQ.z51158.zip.xyz
 -------------------------------------
 Symbolic Z-matrix:
 Charge =  1 Multiplicity = 1

                         Standard orientation:
 ---------------------------------------------------------------------
 Center     Atomic     Atomic              Coordinates (Angstroms)
 Number     Number      Type              X           Y           Z
 ---------------------------------------------------------------------
    1          8             0       -1.405301   -1.078381   -1.283221
    2          8             0       -1.405801   -1.080731    1.281719
    3          8             0        1.310660    0.393748    0.000379
    4          8             0       -1.060799    2.236449    0.001649
    5         15             0       -1.883191   -1.795011   -0.001501
    6         20             0       -0.327250    0.961949    1.595489
    7         20             0        3.090939   -0.768873   -0.000341
    8         20             0       -0.326800    0.964749   -1.594231
 ---------------------------------------------------------------------

 SCF Done:  E(RB+HF-LYP) =  -2674.94658921     A.U. after   13 cycles

 The electronic state is 1-A.
 Alpha  occ. eigenvalues -- -145.57083-145.45573-145.45571 -77.25736 -19.23719
 Alpha  occ. eigenvalues --  -19.23706 -19.19355 -19.12916 -15.63968 -15.52451
 Alpha  occ. eigenvalues --  -15.52448 -12.77181 -12.77173 -12.77037 -12.65676
 Alpha  occ. eigenvalues --  -12.65673 -12.65617 -12.65615 -12.65561 -12.65558
 Alpha  occ. eigenvalues --   -6.71286  -4.87723  -4.87503  -4.87079  -2.00966
 Alpha  occ. eigenvalues --   -1.89824  -1.89726  -1.28576  -1.28483  -1.27692
 Alpha  occ. eigenvalues --   -1.18175  -1.17476  -1.17446  -1.17263  -1.16984
 Alpha  occ. eigenvalues --   -1.16628  -1.09566  -1.04305  -0.93615  -0.86313
 Alpha  occ. eigenvalues --   -0.63069  -0.52535  -0.48637  -0.48382  -0.41405
 Alpha  occ. eigenvalues --   -0.39779  -0.39762  -0.38856  -0.37360  -0.36023
 Alpha  occ. eigenvalues --   -0.31541  -0.30023  -0.29005
 Alpha virt. eigenvalues --   -0.25690  -0.17403  -0.17237  -0.16140  -0.15710
 Alpha virt. eigenvalues --   -0.14549  -0.13174  -0.08693  -0.08010  -0.07991
 Alpha virt. eigenvalues --   -0.07626  -0.07283  -0.06424  -0.06068  -0.05935

 Mulliken atomic charges:
              1
     1  O   -0.674678
     2  O   -0.674499
     3  O   -1.253951
     4  O   -1.003744
     5  P    0.580663
     6  Ca   1.399181
     7  Ca   1.227848
     8  Ca   1.399180
 Sum of Mulliken charges=   1.00000

 Dipole moment (field-independent basis, Debye):
    X=    15.3040    Y=    -2.8634    Z=    -0.0015  Tot=    15.5695
 Quadrupole moment (field-independent basis, Debye-Ang):
   XX=   -33.2237   YY=   -85.1234   ZZ=   -42.9979
   XY=   -11.8455   XZ=    -0.0092   YZ=    -0.0380

 Normal termination of Gaussian 03 at Fri Jun 12 17:39:28 2015.
