 Gaussian 03, Revision E.01,
 Gaussian 03:  EM64T-G03RevE.01 11-Sep-2007

 ----------------------------------------------------
 # b3lyp/6-31+G(d,p) int=ultrafine pop=(ReadRadii,MK)
 ----------------------------------------------------

 -------------------------------------
 Ca3PO4_72.mol2c_plusQc.z51703.zip.xyz
 -------------------------------------
 Symbolic Z-matrix:
 Charge =  1 Multiplicity = 1

                         Standard orientation:
 ---------------------------------------------------------------------
 Center     Atomic     Atomic              Coordinates (Angstroms)
 Number     Number      Type              X           Y           Z
 ---------------------------------------------------------------------
    1          8             0        1.664508   -1.494702   -0.005090
    2          8             0       -0.830932    0.944458   -0.003510
    3          8             0       -2.843762   -1.412022    0.003000
    4          8             0        2.956558    0.670178    0.004760
    5         15             0        3.073968   -0.877972    0.004970
    6         20             0       -3.085732    0.694698    0.003470
    7         20             0        1.078048    1.939818   -0.003070
    8         20             0       -0.676342   -1.459202   -0.003790
 ---------------------------------------------------------------------

 SCF Done:  E(RB+HF-LYP) =  -2675.00578241     A.U. after   10 cycles

 The electronic state is 1-A.
 Alpha  occ. eigenvalues -- -145.53267-145.47077-145.44500 -77.29417 -19.27587
 Alpha  occ. eigenvalues --  -19.27220 -19.17704 -19.10347 -15.60160 -15.53975
 Alpha  occ. eigenvalues --  -15.51458 -12.73416 -12.73365 -12.73202 -12.67215
 Alpha  occ. eigenvalues --  -12.67133 -12.67054 -12.64734 -12.64643 -12.64489
 Alpha  occ. eigenvalues --   -6.74967  -4.91407  -4.91183  -4.90747  -1.97359
 Alpha  occ. eigenvalues --   -1.91270  -1.88908  -1.25214  -1.25064  -1.24228
 Alpha  occ. eigenvalues --   -1.19136  -1.18811  -1.18228  -1.17012  -1.16400
 Alpha  occ. eigenvalues --   -1.16288  -1.13259  -1.07857  -0.92323  -0.84316
 Alpha  occ. eigenvalues --   -0.66990  -0.56451  -0.52420  -0.52200  -0.45152
 Alpha  occ. eigenvalues --   -0.43265  -0.40574  -0.38445  -0.37469  -0.36311
 Alpha  occ. eigenvalues --   -0.29851  -0.28439  -0.28143
 Alpha virt. eigenvalues --   -0.21360  -0.19394  -0.18285  -0.14067  -0.13451
 Alpha virt. eigenvalues --   -0.11719  -0.10634  -0.10444  -0.08694  -0.08515
 Alpha virt. eigenvalues --   -0.07777  -0.07162  -0.06441  -0.06140  -0.05558

 Mulliken atomic charges:
              1
     1  O   -0.683538
     2  O   -1.345398
     3  O   -1.119807
     4  O   -0.719441
     5  P    0.670974
     6  Ca   1.326422
     7  Ca   1.523962
     8  Ca   1.346826
 Sum of Mulliken charges=   1.00000

 Dipole moment (field-independent basis, Debye):
    X=    -0.3746    Y=    11.3773    Z=    -0.0150  Tot=    11.3834
 Quadrupole moment (field-independent basis, Debye-Ang):
   XX=   -59.0958   YY=   -46.9461   ZZ=   -69.1138
   XY=   -17.5995   XZ=    -0.0570   YZ=     0.0242

 Normal termination of Gaussian 03 at Fri Jun 12 17:45:01 2015.
