 Gaussian 03, Revision E.01,
 Gaussian 03:  EM64T-G03RevE.01 11-Sep-2007

 ----------------------------------------------------
 # b3lyp/6-31+G(d,p) int=ultrafine pop=(ReadRadii,MK)
 ----------------------------------------------------

 -------------------------------------
 Ca3PO4_144.mol2c_plusQ.z51148.zip.xyz
 -------------------------------------
 Symbolic Z-matrix:
 Charge =  1 Multiplicity = 1

                         Standard orientation:
 ---------------------------------------------------------------------
 Center     Atomic     Atomic              Coordinates (Angstroms)
 Number     Number      Type              X           Y           Z
 ---------------------------------------------------------------------
    1          8             0       -1.738143   -1.709787   -0.000171
    2          8             0        2.047834   -0.886855    0.785429
    3          8             0       -2.257851    0.777461   -0.000081
    4          8             0        2.048454   -0.887285   -0.785011
    5         15             0       -2.855876   -0.642221   -0.000001
    6         20             0        2.525718    1.176037   -0.000121
    7         20             0       -0.889477    2.627075    0.000039
    8         20             0        0.465549   -2.238860    0.000019
 ---------------------------------------------------------------------

 SCF Done:  E(RB+HF-LYP) =  -2674.90063740     A.U. after   10 cycles

 The electronic state is 1-A.
 Alpha  occ. eigenvalues -- -145.51408-145.50957-145.49494 -77.29440 -19.27284
 Alpha  occ. eigenvalues --  -19.27149 -19.23952 -19.23943 -15.58397 -15.57831
 Alpha  occ. eigenvalues --  -15.56469 -12.71592 -12.71577 -12.71466 -12.71064
 Alpha  occ. eigenvalues --  -12.71049 -12.70903 -12.69686 -12.69654 -12.69540
 Alpha  occ. eigenvalues --   -6.74927  -4.91372  -4.91153  -4.90704  -1.95528
 Alpha  occ. eigenvalues --   -1.95025  -1.93679  -1.23158  -1.23030  -1.22963
 Alpha  occ. eigenvalues --   -1.22712  -1.22659  -1.22631  -1.21320  -1.21155
 Alpha  occ. eigenvalues --   -1.20986  -1.13247  -1.07950  -1.06514  -0.87739
 Alpha  occ. eigenvalues --   -0.67207  -0.56774  -0.52054  -0.51929  -0.47331
 Alpha  occ. eigenvalues --   -0.46451  -0.45150  -0.44573  -0.43335  -0.39981
 Alpha  occ. eigenvalues --   -0.35756  -0.32204  -0.27376
 Alpha virt. eigenvalues --   -0.19210  -0.18705  -0.17851  -0.14892  -0.13676
 Alpha virt. eigenvalues --   -0.12170  -0.11967  -0.10034  -0.09274  -0.08011
 Alpha virt. eigenvalues --   -0.07803  -0.07423  -0.06922  -0.06782  -0.05864

 Mulliken atomic charges:
              1
     1  O   -0.712006
     2  O   -0.641635
     3  O   -0.627144
     4  O   -0.641826
     5  P    0.678020
     6  Ca   0.913021
     7  Ca   0.586071
     8  Ca   1.445500
 Sum of Mulliken charges=   1.00000

 Dipole moment (field-independent basis, Debye):
    X=     1.8126    Y=     0.6538    Z=     0.0004  Tot=     1.9270
 Quadrupole moment (field-independent basis, Debye-Ang):
   XX=   -62.3689   YY=   -34.6046   ZZ=   -80.2290
   XY=     0.0091   XZ=    -0.0019   YZ=    -0.0001

 Normal termination of Gaussian 03 at Fri Jun 12 17:37:53 2015.
