 Gaussian 03, Revision E.01,
 Gaussian 03:  EM64T-G03RevE.01 11-Sep-2007

 ----------------------------------------------------
 # b3lyp/6-31+G(d,p) int=ultrafine pop=(ReadRadii,MK)
 ----------------------------------------------------

 -----------------------------------
 Ca3PO4_22.mol2_plusQ.z51433.zip.xyz
 -----------------------------------
 Symbolic Z-matrix:
 Charge =  1 Multiplicity = 1

                         Standard orientation:
 ---------------------------------------------------------------------
 Center     Atomic     Atomic              Coordinates (Angstroms)
 Number     Number      Type              X           Y           Z
 ---------------------------------------------------------------------
    1          8             0       -1.207351   -1.304692   -0.455192
    2          8             0        0.749420    0.000102    1.322448
    3          8             0        2.167220    0.000301    0.761678
    4          8             0       -1.207720    1.304408   -0.455232
    5         15             0       -1.092490   -0.000143   -1.560952
    6         20             0        1.059063    1.691420   -0.336792
    7         20             0        1.059536   -1.691210   -0.336752
    8         20             0       -1.499860   -0.000150    1.374778
 ---------------------------------------------------------------------

 SCF Done:  E(RB+HF-LYP) =  -2674.89010757     A.U. after    7 cycles

 The electronic state is 1-A.
 Alpha  occ. eigenvalues -- -145.52803-145.50766-145.50764 -77.21499 -19.26309
 Alpha  occ. eigenvalues --  -19.25932 -19.22267 -19.22266 -15.59576 -15.57616
 Alpha  occ. eigenvalues --  -15.57615 -12.72760 -12.72759 -12.72736 -12.70851
 Alpha  occ. eigenvalues --  -12.70850 -12.70800 -12.70798 -12.70719 -12.70718
 Alpha  occ. eigenvalues --   -6.67307  -4.83742  -4.83471  -4.83047  -1.96755
 Alpha  occ. eigenvalues --   -1.94813  -1.94757  -1.24736  -1.24303  -1.24213
 Alpha  occ. eigenvalues --   -1.23220  -1.22469  -1.22316  -1.22189  -1.22124
 Alpha  occ. eigenvalues --   -1.21780  -1.10224  -1.04707  -1.00706  -0.89616
 Alpha  occ. eigenvalues --   -0.63141  -0.51639  -0.49770  -0.48649  -0.48468
 Alpha  occ. eigenvalues --   -0.47617  -0.44982  -0.41625  -0.39266  -0.37730
 Alpha  occ. eigenvalues --   -0.35796  -0.34544  -0.25356
 Alpha virt. eigenvalues --   -0.20580  -0.19190  -0.18824  -0.13461  -0.13068
 Alpha virt. eigenvalues --   -0.11280  -0.11006  -0.10668  -0.09122  -0.08672
 Alpha virt. eigenvalues --   -0.08246  -0.07167  -0.06822  -0.06447  -0.05779

 Mulliken atomic charges:
              1
     1  O   -0.776215
     2  O   -0.673476
     3  O   -0.608194
     4  O   -0.776215
     5  P   -0.226506
     6  Ca   1.260278
     7  Ca   1.260310
     8  Ca   1.540019
 Sum of Mulliken charges=   1.00000

 Dipole moment (field-independent basis, Debye):
    X=     0.9955    Y=    -0.0001    Z=     5.3808  Tot=     5.4721
 Quadrupole moment (field-independent basis, Debye-Ang):
   XX=   -67.1633   YY=   -43.8710   ZZ=   -71.2052
   XY=    -0.0041   XZ=   -29.6538   YZ=    -0.0037

 Normal termination of Gaussian 03 at Fri Jun 12 17:42:13 2015.
