 Gaussian 03, Revision E.01,
 Gaussian 03:  EM64T-G03RevE.01 11-Sep-2007

 ----------------------------------------------------
 # b3lyp/6-31+G(d,p) int=ultrafine pop=(ReadRadii,MK)
 ----------------------------------------------------

 -------------------------------------
 Ca3PO4_160.mol2c_plusQ.z51166.zip.xyz
 -------------------------------------
 Symbolic Z-matrix:
 Charge =  1 Multiplicity = 1

                         Standard orientation:
 ---------------------------------------------------------------------
 Center     Atomic     Atomic              Coordinates (Angstroms)
 Number     Number      Type              X           Y           Z
 ---------------------------------------------------------------------
    1          8             0        1.444151    0.320491    0.927089
    2          8             0       -1.002465    1.092473    0.919309
    3          8             0       -0.447550   -1.411987    0.920179
    4          8             0        0.004699   -0.000429   -1.711361
    5         15             0       -0.003681    0.000228    1.717779
    6         20             0       -1.900122   -0.421451   -0.572561
    7         20             0        1.316817   -1.434528   -0.567951
    8         20             0        0.586532    1.855589   -0.569911
 ---------------------------------------------------------------------

 SCF Done:  E(RB+HF-LYP) =  -2675.07105279     A.U. after    8 cycles

 The electronic state is 1-A.
 Alpha  occ. eigenvalues -- -145.49642-145.49633-145.49629 -77.25048 -19.21292
 Alpha  occ. eigenvalues --  -19.21190 -19.21164 -19.15920 -15.56476 -15.56467
 Alpha  occ. eigenvalues --  -15.56464 -12.69674 -12.69666 -12.69663 -12.69651
 Alpha  occ. eigenvalues --  -12.69643 -12.69640 -12.69604 -12.69596 -12.69593
 Alpha  occ. eigenvalues --   -6.70077  -4.86426  -4.86426  -4.85890  -1.93819
 Alpha  occ. eigenvalues --   -1.93737  -1.93732  -1.22368  -1.21690  -1.21689
 Alpha  occ. eigenvalues --   -1.21300  -1.21135  -1.21062  -1.21058  -1.20640
 Alpha  occ. eigenvalues --   -1.20634  -1.06742  -1.00366  -1.00317  -0.90916
 Alpha  occ. eigenvalues --   -0.62633  -0.50521  -0.50507  -0.47945  -0.43345
 Alpha  occ. eigenvalues --   -0.43344  -0.38349  -0.38318  -0.38168  -0.36118
 Alpha  occ. eigenvalues --   -0.36109  -0.34569  -0.30848
 Alpha virt. eigenvalues --   -0.19947  -0.18027  -0.18023  -0.12553  -0.12549
 Alpha virt. eigenvalues --   -0.10892  -0.09479  -0.09474  -0.08338  -0.07769
 Alpha virt. eigenvalues --   -0.06545  -0.06114  -0.06113  -0.04763  -0.04715

 Mulliken atomic charges:
              1
     1  O   -1.032514
     2  O   -1.031953
     3  O   -1.031692
     4  O   -1.250948
     5  P    1.097380
     6  Ca   1.416791
     7  Ca   1.416594
     8  Ca   1.416342
 Sum of Mulliken charges=   1.00000

 Dipole moment (field-independent basis, Debye):
    X=     0.0052    Y=    -0.0079    Z=    -8.2295  Tot=     8.2295
 Quadrupole moment (field-independent basis, Debye-Ang):
   XX=   -39.9868   YY=   -40.0570   ZZ=   -90.0172
   XY=     0.0040   XZ=     0.0765   YZ=    -0.0221

 Normal termination of Gaussian 03 at Fri Jun 12 17:39:04 2015.
