 Gaussian 03, Revision E.01,
 Gaussian 03:  EM64T-G03RevE.01 11-Sep-2007

 ----------------------------------------------------
 # b3lyp/6-31+G(d,p) int=ultrafine pop=(ReadRadii,MK)
 ----------------------------------------------------

 ------------------------------------
 Ca3PO4_71.mol2c_plusQ.z51487.zip.xyz
 ------------------------------------
 Symbolic Z-matrix:
 Charge =  1 Multiplicity = 1

                         Standard orientation:
 ---------------------------------------------------------------------
 Center     Atomic     Atomic              Coordinates (Angstroms)
 Number     Number      Type              X           Y           Z
 ---------------------------------------------------------------------
    1          8             0        1.435358    0.364361    0.922202
    2          8             0       -1.032444    1.062436    0.921872
    3          8             0       -0.402704   -1.423684    0.923162
    4          8             0       -0.000387   -0.001470   -1.711618
    5         15             0        0.000139    0.001481    1.718052
    6         20             0        0.529436    1.871577   -0.571758
    7         20             0        1.357011   -1.395001   -0.569308
    8         20             0       -1.886480   -0.478344   -0.569718
 ---------------------------------------------------------------------

 SCF Done:  E(RB+HF-LYP) =  -2675.07106157     A.U. after    8 cycles

 The electronic state is 1-A.
 Alpha  occ. eigenvalues -- -145.49641-145.49635-145.49629 -77.25053 -19.21234
 Alpha  occ. eigenvalues --  -19.21220 -19.21212 -19.15943 -15.56475 -15.56471
 Alpha  occ. eigenvalues --  -15.56464 -12.69672 -12.69669 -12.69663 -12.69650
 Alpha  occ. eigenvalues --  -12.69647 -12.69640 -12.69602 -12.69600 -12.69593
 Alpha  occ. eigenvalues --   -6.70084  -4.86432  -4.86432  -4.85896  -1.93822
 Alpha  occ. eigenvalues --   -1.93740  -1.93735  -1.22377  -1.21696  -1.21693
 Alpha  occ. eigenvalues --   -1.21306  -1.21138  -1.21064  -1.21062  -1.20643
 Alpha  occ. eigenvalues --   -1.20639  -1.06764  -1.00361  -1.00353  -0.90943
 Alpha  occ. eigenvalues --   -0.62641  -0.50531  -0.50528  -0.47963  -0.43360
 Alpha  occ. eigenvalues --   -0.43358  -0.38346  -0.38340  -0.38176  -0.36140
 Alpha  occ. eigenvalues --   -0.36137  -0.34594  -0.30857
 Alpha virt. eigenvalues --   -0.19950  -0.18028  -0.18025  -0.12556  -0.12553
 Alpha virt. eigenvalues --   -0.10894  -0.09479  -0.09477  -0.08339  -0.07772
 Alpha virt. eigenvalues --   -0.06545  -0.06114  -0.06114  -0.04765  -0.04715

 Mulliken atomic charges:
              1
     1  O   -1.032349
     2  O   -1.032195
     3  O   -1.032198
     4  O   -1.251104
     5  P    1.098181
     6  Ca   1.416420
     7  Ca   1.416558
     8  Ca   1.416686
 Sum of Mulliken charges=   1.00000

 Dipole moment (field-independent basis, Debye):
    X=     0.0003    Y=    -0.0135    Z=    -8.2334  Tot=     8.2334
 Quadrupole moment (field-independent basis, Debye-Ang):
   XX=   -40.0231   YY=   -40.0453   ZZ=   -90.0107
   XY=     0.0043   XZ=    -0.0075   YZ=    -0.0433

 Normal termination of Gaussian 03 at Fri Jun 12 17:44:58 2015.
