 Gaussian 03, Revision E.01,
 Gaussian 03:  EM64T-G03RevE.01 11-Sep-2007

 ----------------------------------------------------
 # b3lyp/6-31+G(d,p) int=ultrafine pop=(ReadRadii,MK)
 ----------------------------------------------------

 -------------------------------------
 Ca3PO4_139.mol2c_plusQ.z51142.zip.xyz
 -------------------------------------
 Symbolic Z-matrix:
 Charge =  1 Multiplicity = 1

                         Standard orientation:
 ---------------------------------------------------------------------
 Center     Atomic     Atomic              Coordinates (Angstroms)
 Number     Number      Type              X           Y           Z
 ---------------------------------------------------------------------
    1          8             0        0.949777    1.136415    0.922159
    2          8             0       -0.000240   -0.000180   -1.711911
    3          8             0       -1.458626    0.254198    0.922769
    4          8             0        0.509497   -1.390331    0.922589
    5         15             0        0.000359    0.000241    1.718269
    6         20             0       -0.669457    1.827019   -0.570371
    7         20             0        1.916897   -0.334029   -0.570571
    8         20             0       -1.247871   -1.493210   -0.570001
 ---------------------------------------------------------------------

 SCF Done:  E(RB+HF-LYP) =  -2675.07104394     A.U. after    8 cycles

 The electronic state is 1-A.
 Alpha  occ. eigenvalues -- -145.49641-145.49636-145.49634 -77.25057 -19.21226
 Alpha  occ. eigenvalues --  -19.21222 -19.21219 -19.15943 -15.56475 -15.56471
 Alpha  occ. eigenvalues --  -15.56470 -12.69672 -12.69671 -12.69669 -12.69650
 Alpha  occ. eigenvalues --  -12.69648 -12.69646 -12.69602 -12.69601 -12.69599
 Alpha  occ. eigenvalues --   -6.70086  -4.86435  -4.86435  -4.85899  -1.93824
 Alpha  occ. eigenvalues --   -1.93739  -1.93738  -1.22376  -1.21696  -1.21694
 Alpha  occ. eigenvalues --   -1.21306  -1.21139  -1.21065  -1.21064  -1.20643
 Alpha  occ. eigenvalues --   -1.20641  -1.06756  -1.00354  -1.00351  -0.90941
 Alpha  occ. eigenvalues --   -0.62641  -0.50525  -0.50524  -0.47958  -0.43355
 Alpha  occ. eigenvalues --   -0.43355  -0.38342  -0.38339  -0.38174  -0.36137
 Alpha  occ. eigenvalues --   -0.36136  -0.34593  -0.30860
 Alpha virt. eigenvalues --   -0.19950  -0.18027  -0.18026  -0.12555  -0.12554
 Alpha virt. eigenvalues --   -0.10894  -0.09478  -0.09477  -0.08338  -0.07772
 Alpha virt. eigenvalues --   -0.06545  -0.06115  -0.06114  -0.04765  -0.04716

 Mulliken atomic charges:
              1
     1  O   -1.032242
     2  O   -1.251086
     3  O   -1.032288
     4  O   -1.032222
     5  P    1.098026
     6  Ca   1.416593
     7  Ca   1.416611
     8  Ca   1.416608
 Sum of Mulliken charges=   1.00000

 Dipole moment (field-independent basis, Debye):
    X=    -0.0026    Y=    -0.0014    Z=    -8.2334  Tot=     8.2334
 Quadrupole moment (field-independent basis, Debye-Ang):
   XX=   -40.0330   YY=   -40.0363   ZZ=   -90.0129
   XY=    -0.0012   XZ=    -0.0065   YZ=    -0.0043

 Normal termination of Gaussian 03 at Fri Jun 12 17:37:40 2015.
