 Gaussian 03, Revision E.01,
 Gaussian 03:  EM64T-G03RevE.01 11-Sep-2007

 ----------------------------------------------------
 # b3lyp/6-31+G(d,p) int=ultrafine pop=(ReadRadii,MK)
 ----------------------------------------------------

 -------------------------------------
 Ca3PO4_191.mol2c_plusQ.z51200.zip.xyz
 -------------------------------------
 Symbolic Z-matrix:
 Charge =  1 Multiplicity = 1

                         Standard orientation:
 ---------------------------------------------------------------------
 Center     Atomic     Atomic              Coordinates (Angstroms)
 Number     Number      Type              X           Y           Z
 ---------------------------------------------------------------------
    1          8             0       -1.713268   -0.000307    1.611930
    2          8             0       -2.867748    0.002474    0.664810
    3          8             0       -0.199358    1.232393   -0.151810
    4          8             0       -0.198868   -1.233387   -0.152080
    5         15             0       -0.213398   -0.000117    0.973590
    6         20             0       -1.870258   -0.001457   -1.302220
    7         20             0        2.011571   -1.856218   -0.107920
    8         20             0        2.010432    1.857292   -0.109190
 ---------------------------------------------------------------------

 SCF Done:  E(RB+HF-LYP) =  -2674.82683578     A.U. after    8 cycles

 The electronic state is 1-A.
 Alpha  occ. eigenvalues -- -145.53772-145.53768-145.52289 -77.26780 -19.27893
 Alpha  occ. eigenvalues --  -19.23820 -19.23816 -19.21985 -15.60711 -15.60708
 Alpha  occ. eigenvalues --  -15.59074 -12.73918 -12.73915 -12.73899 -12.73895
 Alpha  occ. eigenvalues --  -12.73790 -12.73787 -12.72275 -12.72267 -12.72209
 Alpha  occ. eigenvalues --   -6.72181  -4.88536  -4.88512  -4.88015  -1.97757
 Alpha  occ. eigenvalues --   -1.97743  -1.96182  -1.25364  -1.25286  -1.25250
 Alpha  occ. eigenvalues --   -1.25066  -1.24890  -1.24779  -1.24130  -1.23535
 Alpha  occ. eigenvalues --   -1.23449  -1.13986  -1.07349  -1.02816  -0.90848
 Alpha  occ. eigenvalues --   -0.65091  -0.54988  -0.52892  -0.52557  -0.47386
 Alpha  occ. eigenvalues --   -0.46290  -0.44103  -0.43127  -0.38807  -0.36104
 Alpha  occ. eigenvalues --   -0.33606  -0.31171  -0.28088
 Alpha virt. eigenvalues --   -0.21722  -0.20442  -0.16240  -0.15877  -0.13218
 Alpha virt. eigenvalues --   -0.12954  -0.12134  -0.11759  -0.10116  -0.09205
 Alpha virt. eigenvalues --   -0.09025  -0.08173  -0.07532  -0.06157  -0.06007

 Mulliken atomic charges:
              1
     1  O   -0.459422
     2  O   -0.489733
     3  O   -0.858597
     4  O   -0.858886
     5  P    0.688436
     6  Ca   1.468062
     7  Ca   0.755157
     8  Ca   0.754982
 Sum of Mulliken charges=   1.00000

 Dipole moment (field-independent basis, Debye):
    X=     7.1435    Y=    -0.0053    Z=    -9.8659  Tot=    12.1806
 Quadrupole moment (field-independent basis, Debye-Ang):
   XX=   -64.9703   YY=   -48.8413   ZZ=   -69.4493
   XY=     0.0269   XZ=    27.7933   YZ=    -0.0022

 Normal termination of Gaussian 03 at Fri Jun 12 17:40:30 2015.
