 Gaussian 03, Revision E.01,
 Gaussian 03:  EM64T-G03RevE.01 11-Sep-2007

 ----------------------------------------------------
 # b3lyp/6-31+G(d,p) int=ultrafine pop=(ReadRadii,MK)
 ----------------------------------------------------

 -------------------------------------
 Ca3PO4_200.mol2c_plusQ.z51410.zip.xyz
 -------------------------------------
 Symbolic Z-matrix:
 Charge =  1 Multiplicity = 1

                         Standard orientation:
 ---------------------------------------------------------------------
 Center     Atomic     Atomic              Coordinates (Angstroms)
 Number     Number      Type              X           Y           Z
 ---------------------------------------------------------------------
    1          8             0       -0.259517    1.486926    1.363960
    2          8             0        0.000669   -0.000650   -0.687860
    3          8             0       -1.157657   -0.975909    1.361300
    4          8             0        1.424707   -0.522179    1.359710
    5         15             0        0.002358   -0.003451    1.064740
    6         20             0       -0.417479    2.342940   -0.715420
    7         20             0       -1.826571   -1.526878   -0.719530
    8         20             0        2.239001   -0.808750   -0.722450
 ---------------------------------------------------------------------

 SCF Done:  E(RB+HF-LYP) =  -2675.01212854     A.U. after   10 cycles

 The electronic state is 1-A.
 Alpha  occ. eigenvalues -- -145.53744-145.53741-145.53714 -77.32320 -19.26066
 Alpha  occ. eigenvalues --  -19.22413 -19.22396 -19.22381 -15.60638 -15.60634
 Alpha  occ. eigenvalues --  -15.60608 -12.73864 -12.73861 -12.73834 -12.73799
 Alpha  occ. eigenvalues --  -12.73796 -12.73770 -12.73744 -12.73741 -12.73714
 Alpha  occ. eigenvalues --   -6.76690  -4.93232  -4.92933  -4.92933  -1.97699
 Alpha  occ. eigenvalues --   -1.97692  -1.97668  -1.25656  -1.25317  -1.25305
 Alpha  occ. eigenvalues --   -1.25265  -1.25029  -1.25012  -1.24990  -1.24912
 Alpha  occ. eigenvalues --   -1.24893  -1.13300  -1.04684  -1.04674  -1.04452
 Alpha  occ. eigenvalues --   -0.63472  -0.55544  -0.53616  -0.53610  -0.47936
 Alpha  occ. eigenvalues --   -0.47928  -0.43440  -0.43436  -0.42225  -0.40372
 Alpha  occ. eigenvalues --   -0.40357  -0.37474  -0.26992
 Alpha virt. eigenvalues --   -0.22186  -0.22162  -0.15991  -0.15978  -0.14864
 Alpha virt. eigenvalues --   -0.12675  -0.11783  -0.11765  -0.11231  -0.08623
 Alpha virt. eigenvalues --   -0.08605  -0.07723  -0.05591  -0.05586  -0.05429

 Mulliken atomic charges:
              1
     1  O   -0.773704
     2  O   -1.112331
     3  O   -0.773252
     4  O   -0.773564
     5  P    1.353709
     6  Ca   1.024728
     7  Ca   1.025791
     8  Ca   1.028623
 Sum of Mulliken charges=   1.00000

 Dipole moment (field-independent basis, Debye):
    X=     0.0127    Y=     0.0110    Z=   -10.6808  Tot=    10.6808
 Quadrupole moment (field-independent basis, Debye-Ang):
   XX=   -46.4365   YY=   -46.6065   ZZ=   -93.5718
   XY=    -0.0131   XZ=    -0.1089   YZ=     0.1108

 Normal termination of Gaussian 03 at Fri Jun 12 17:41:34 2015.
