 Gaussian 03, Revision E.01,
 Gaussian 03:  EM64T-G03RevE.01 11-Sep-2007

 ----------------------------------------------------
 # b3lyp/6-31+G(d,p) int=ultrafine pop=(ReadRadii,MK)
 ----------------------------------------------------

 -------------------------------------
 Ca3PO4_184.mol2c_plusQ.z51192.zip.xyz
 -------------------------------------
 Symbolic Z-matrix:
 Charge =  1 Multiplicity = 1

                         Standard orientation:
 ---------------------------------------------------------------------
 Center     Atomic     Atomic              Coordinates (Angstroms)
 Number     Number      Type              X           Y           Z
 ---------------------------------------------------------------------
    1          8             0       -1.228734    0.824760    0.923890
    2          8             0       -0.098520   -1.477077    0.922470
    3          8             0        1.330540    0.652926    0.920870
    4          8             0       -0.001952   -0.000360   -1.711810
    5         15             0        0.002108    0.000160    1.718000
    6         20             0        1.615673   -1.083743   -0.571460
    7         20             0       -1.747720   -0.857372   -0.568580
    8         20             0        0.129932    1.940896   -0.570630
 ---------------------------------------------------------------------

 SCF Done:  E(RB+HF-LYP) =  -2675.07103630     A.U. after    8 cycles

 The electronic state is 1-A.
 Alpha  occ. eigenvalues -- -145.49642-145.49636-145.49630 -77.25055 -19.21234
 Alpha  occ. eigenvalues --  -19.21225 -19.21217 -19.15945 -15.56476 -15.56472
 Alpha  occ. eigenvalues --  -15.56466 -12.69674 -12.69670 -12.69665 -12.69652
 Alpha  occ. eigenvalues --  -12.69648 -12.69642 -12.69604 -12.69601 -12.69595
 Alpha  occ. eigenvalues --   -6.70085  -4.86434  -4.86434  -4.85897  -1.93824
 Alpha  occ. eigenvalues --   -1.93741  -1.93736  -1.22378  -1.21696  -1.21695
 Alpha  occ. eigenvalues --   -1.21307  -1.21139  -1.21065  -1.21063  -1.20644
 Alpha  occ. eigenvalues --   -1.20640  -1.06762  -1.00360  -1.00355  -0.90944
 Alpha  occ. eigenvalues --   -0.62643  -0.50531  -0.50528  -0.47963  -0.43360
 Alpha  occ. eigenvalues --   -0.43358  -0.38349  -0.38342  -0.38179  -0.36140
 Alpha  occ. eigenvalues --   -0.36138  -0.34594  -0.30859
 Alpha virt. eigenvalues --   -0.19950  -0.18028  -0.18025  -0.12555  -0.12553
 Alpha virt. eigenvalues --   -0.10894  -0.09479  -0.09477  -0.08338  -0.07772
 Alpha virt. eigenvalues --   -0.06545  -0.06114  -0.06113  -0.04765  -0.04715

 Mulliken atomic charges:
              1
     1  O   -1.032219
     2  O   -1.032071
     3  O   -1.032189
     4  O   -1.251131
     5  P    1.097944
     6  Ca   1.416572
     7  Ca   1.416746
     8  Ca   1.416348
 Sum of Mulliken charges=   1.00000

 Dipole moment (field-independent basis, Debye):
    X=    -0.0125    Y=    -0.0047    Z=    -8.2313  Tot=     8.2314
 Quadrupole moment (field-independent basis, Debye-Ang):
   XX=   -40.0186   YY=   -40.0505   ZZ=   -90.0140
   XY=    -0.0059   XZ=    -0.0464   YZ=    -0.0119

 Normal termination of Gaussian 03 at Fri Jun 12 17:40:21 2015.
