 Gaussian 03, Revision E.01,
 Gaussian 03:  EM64T-G03RevE.01 11-Sep-2007

 ----------------------------------------------------
 # b3lyp/6-31+G(d,p) int=ultrafine pop=(ReadRadii,MK)
 ----------------------------------------------------

 -------------------------------------
 Ca3PO4_125.mol2c_plusQ.z51127.zip.xyz
 -------------------------------------
 Symbolic Z-matrix:
 Charge =  1 Multiplicity = 1

                         Standard orientation:
 ---------------------------------------------------------------------
 Center     Atomic     Atomic              Coordinates (Angstroms)
 Number     Number      Type              X           Y           Z
 ---------------------------------------------------------------------
    1          8             0       -1.855340   -0.430699   -1.173902
    2          8             0       -0.594710    1.141981    1.165798
    3          8             0       -0.424950   -0.957219   -1.073712
    4          8             0        1.582320    0.967991   -0.119502
    5         15             0        1.004960    0.869261    1.431908
    6         20             0       -0.475170    1.395481   -1.159912
    7         20             0        1.732941   -1.334459   -0.459992
    8         20             0       -1.494420   -1.001789    1.026498
 ---------------------------------------------------------------------

 SCF Done:  E(RB+HF-LYP) =  -2674.89709021     A.U. after    8 cycles

 The electronic state is 1-A.
 Alpha  occ. eigenvalues -- -145.52626-145.51617-145.51311 -77.24822 -19.26791
 Alpha  occ. eigenvalues --  -19.26189 -19.24041 -19.23888 -15.59465 -15.58471
 Alpha  occ. eigenvalues --  -15.58130 -12.72674 -12.72637 -12.72599 -12.71683
 Alpha  occ. eigenvalues --  -12.71642 -12.71609 -12.71337 -12.71328 -12.71249
 Alpha  occ. eigenvalues --   -6.70499  -4.86858  -4.86657  -4.86361  -1.96518
 Alpha  occ. eigenvalues --   -1.95630  -1.95355  -1.24676  -1.23970  -1.23922
 Alpha  occ. eigenvalues --   -1.23731  -1.23292  -1.23085  -1.22862  -1.22794
 Alpha  occ. eigenvalues --   -1.22505  -1.10500  -1.08207  -1.03321  -0.90060
 Alpha  occ. eigenvalues --   -0.64733  -0.52138  -0.51958  -0.50422  -0.49830
 Alpha  occ. eigenvalues --   -0.48945  -0.46433  -0.43424  -0.40654  -0.38963
 Alpha  occ. eigenvalues --   -0.36581  -0.34904  -0.26278
 Alpha virt. eigenvalues --   -0.20737  -0.19892  -0.18854  -0.13938  -0.13323
 Alpha virt. eigenvalues --   -0.11708  -0.11216  -0.10571  -0.09636  -0.09400
 Alpha virt. eigenvalues --   -0.08747  -0.07314  -0.06832  -0.06426  -0.06002

 Mulliken atomic charges:
              1
     1  O   -0.627659
     2  O   -0.723643
     3  O   -0.627555
     4  O   -0.703393
     5  P   -0.088457
     6  Ca   1.514148
     7  Ca   0.969949
     8  Ca   1.286609
 Sum of Mulliken charges=   1.00000

 Dipole moment (field-independent basis, Debye):
    X=    -1.3463    Y=    -1.5916    Z=    -2.9600  Tot=     3.6204
 Quadrupole moment (field-independent basis, Debye-Ang):
   XX=   -59.4338   YY=   -58.1207   ZZ=   -69.9542
   XY=   -10.3652   XZ=   -18.1624   YZ=   -19.1805

 Normal termination of Gaussian 03 at Fri Jun 12 17:37:05 2015.
