 Gaussian 03, Revision E.01,
 Gaussian 03:  EM64T-G03RevE.01 11-Sep-2007

 ----------------------------------------------------
 # b3lyp/6-31+G(d,p) int=ultrafine pop=(ReadRadii,MK)
 ----------------------------------------------------

 -------------------------------------
 Ca3PO4_132.mol2c_plusQ.z51135.zip.xyz
 -------------------------------------
 Symbolic Z-matrix:
 Charge =  1 Multiplicity = 1

                         Standard orientation:
 ---------------------------------------------------------------------
 Center     Atomic     Atomic              Coordinates (Angstroms)
 Number     Number      Type              X           Y           Z
 ---------------------------------------------------------------------
    1          8             0        2.238901   -0.001801    1.331410
    2          8             0        0.585684   -1.253975   -0.108970
    3          8             0       -2.692789    0.001607   -0.333140
    4          8             0        0.588598    1.253385   -0.109440
    5         15             0        0.691721   -0.000165    1.034490
    6         20             0        2.440511   -0.000761   -0.935700
    7         20             0       -1.625355   -1.817341   -0.076300
    8         20             0       -1.622104    1.818539   -0.075810
 ---------------------------------------------------------------------

 SCF Done:  E(RB+HF-LYP) =  -2674.99967950     A.U. after    8 cycles

 The electronic state is 1-A.
 Alpha  occ. eigenvalues -- -145.52901-145.48519-145.48517 -77.24513 -19.21562
 Alpha  occ. eigenvalues --  -19.21552 -19.18917 -19.12187 -15.59698 -15.55422
 Alpha  occ. eigenvalues --  -15.55420 -12.72880 -12.72876 -12.72864 -12.68674
 Alpha  occ. eigenvalues --  -12.68673 -12.68606 -12.68604 -12.68481 -12.68479
 Alpha  occ. eigenvalues --   -6.69828  -4.86208  -4.86131  -4.85710  -1.96741
 Alpha  occ. eigenvalues --   -1.92688  -1.92662  -1.24717  -1.24002  -1.23966
 Alpha  occ. eigenvalues --   -1.20597  -1.20526  -1.20411  -1.20154  -1.19796
 Alpha  occ. eigenvalues --   -1.19304  -1.06953  -0.99980  -0.99925  -0.86571
 Alpha  occ. eigenvalues --   -0.61880  -0.49710  -0.49547  -0.48422  -0.42889
 Alpha  occ. eigenvalues --   -0.42356  -0.38147  -0.37920  -0.34578  -0.32844
 Alpha  occ. eigenvalues --   -0.32541  -0.30664  -0.30262
 Alpha virt. eigenvalues --   -0.20427  -0.18307  -0.17397  -0.12506  -0.11991
 Alpha virt. eigenvalues --   -0.10385  -0.10049  -0.08960  -0.08368  -0.08012
 Alpha virt. eigenvalues --   -0.07399  -0.06923  -0.06468  -0.05554  -0.05312

 Mulliken atomic charges:
              1
     1  O   -0.880174
     2  O   -0.957408
     3  O   -1.183424
     4  O   -0.957430
     5  P    0.749645
     6  Ca   1.380454
     7  Ca   1.424225
     8  Ca   1.424111
 Sum of Mulliken charges=   1.00000

 Dipole moment (field-independent basis, Debye):
    X=     1.5106    Y=    -0.0019    Z=    -7.4986  Tot=     7.6493
 Quadrupole moment (field-independent basis, Debye-Ang):
   XX=   -53.1245   YY=   -32.3129   ZZ=   -70.0771
   XY=     0.0458   XZ=   -28.1190   YZ=     0.0215

 Normal termination of Gaussian 03 at Fri Jun 12 17:37:23 2015.
