 Gaussian 03, Revision E.01,
 Gaussian 03:  EM64T-G03RevE.01 11-Sep-2007

 ----------------------------------------------------
 # b3lyp/6-31+G(d,p) int=ultrafine pop=(ReadRadii,MK)
 ----------------------------------------------------

 ----------------------------------
 Ca3PO4_3.mol2_plusQ.z51452.zip.xyz
 ----------------------------------
 Symbolic Z-matrix:
 Charge =  1 Multiplicity = 1

                         Standard orientation:
 ---------------------------------------------------------------------
 Center     Atomic     Atomic              Coordinates (Angstroms)
 Number     Number      Type              X           Y           Z
 ---------------------------------------------------------------------
    1          8             0       -2.239669   -0.000742    1.330841
    2          8             0       -0.588761    1.253630   -0.109669
    3          8             0       -0.585438   -1.253730   -0.107499
    4          8             0        2.691941    0.001314   -0.332819
    5         15             0       -0.692109    0.000920    1.035061
    6         20             0       -2.439199   -0.001773   -0.936399
    7         20             0        1.625103   -1.817878   -0.075939
    8         20             0        1.621949    1.818772   -0.076299
 ---------------------------------------------------------------------

 SCF Done:  E(RB+HF-LYP) =  -2674.99967799     A.U. after    8 cycles

 The electronic state is 1-A.
 Alpha  occ. eigenvalues -- -145.52892-145.48523-145.48522 -77.24507 -19.21560
 Alpha  occ. eigenvalues --  -19.21556 -19.18909 -19.12195 -15.59689 -15.55426
 Alpha  occ. eigenvalues --  -15.55425 -12.72871 -12.72867 -12.72855 -12.68678
 Alpha  occ. eigenvalues --  -12.68677 -12.68610 -12.68608 -12.68485 -12.68483
 Alpha  occ. eigenvalues --   -6.69823  -4.86203  -4.86126  -4.85705  -1.96733
 Alpha  occ. eigenvalues --   -1.92692  -1.92666  -1.24711  -1.23995  -1.23959
 Alpha  occ. eigenvalues --   -1.20601  -1.20530  -1.20415  -1.20158  -1.19801
 Alpha  occ. eigenvalues --   -1.19308  -1.06949  -0.99973  -0.99927  -0.86580
 Alpha  occ. eigenvalues --   -0.61880  -0.49711  -0.49544  -0.48418  -0.42891
 Alpha  occ. eigenvalues --   -0.42357  -0.38147  -0.37915  -0.34575  -0.32844
 Alpha  occ. eigenvalues --   -0.32550  -0.30672  -0.30269
 Alpha virt. eigenvalues --   -0.20424  -0.18311  -0.17402  -0.12508  -0.11991
 Alpha virt. eigenvalues --   -0.10386  -0.10052  -0.08963  -0.08370  -0.08013
 Alpha virt. eigenvalues --   -0.07399  -0.06926  -0.06470  -0.05553  -0.05313

 Mulliken atomic charges:
              1
     1  O   -0.880168
     2  O   -0.957456
     3  O   -0.957748
     4  O   -1.183703
     5  P    0.750036
     6  Ca   1.380306
     7  Ca   1.424467
     8  Ca   1.424267
 Sum of Mulliken charges=   1.00000

 Dipole moment (field-independent basis, Debye):
    X=    -1.4956    Y=    -0.0123    Z=    -7.5064  Tot=     7.6540
 Quadrupole moment (field-independent basis, Debye-Ang):
   XX=   -53.1686   YY=   -32.2876   ZZ=   -70.0553
   XY=    -0.0162   XZ=    28.1177   YZ=     0.0211

 Normal termination of Gaussian 03 at Fri Jun 12 17:43:09 2015.
