 Gaussian 03, Revision E.01,
 Gaussian 03:  EM64T-G03RevE.01 11-Sep-2007

 ----------------------------------------------------
 # b3lyp/6-31+G(d,p) int=ultrafine pop=(ReadRadii,MK)
 ----------------------------------------------------

 -------------------------------------
 Ca3PO4_104.mol2c_plusQ.z51104.zip.xyz
 -------------------------------------
 Symbolic Z-matrix:
 Charge =  1 Multiplicity = 1

                         Standard orientation:
 ---------------------------------------------------------------------
 Center     Atomic     Atomic              Coordinates (Angstroms)
 Number     Number      Type              X           Y           Z
 ---------------------------------------------------------------------
    1          8             0       -1.561669   -0.000639    1.538339
    2          8             0       -0.515139    1.259051   -0.371421
    3          8             0       -0.513999   -1.260889   -0.370651
    4          8             0        1.159581    0.000310    1.077779
    5         15             0       -0.341029   -0.000699    0.614099
    6         20             0        1.751350   -1.878060   -0.313291
    7         20             0        1.749141    1.879720   -0.312731
    8         20             0       -2.672229   -0.000269   -0.584171
 ---------------------------------------------------------------------

 SCF Done:  E(RB+HF-LYP) =  -2675.01471881     A.U. after   10 cycles

 The electronic state is 1-A.
 Alpha  occ. eigenvalues -- -145.56109-145.52122-145.52120 -77.32378 -19.25583
 Alpha  occ. eigenvalues --  -19.23666 -19.23665 -19.21965 -15.62816 -15.59016
 Alpha  occ. eigenvalues --  -15.59015 -12.76018 -12.76013 -12.75986 -12.72228
 Alpha  occ. eigenvalues --  -12.72226 -12.72182 -12.72181 -12.72130 -12.72129
 Alpha  occ. eigenvalues --   -6.76991  -4.93389  -4.93334  -4.93227  -1.99593
 Alpha  occ. eigenvalues --   -1.96055  -1.96039  -1.27398  -1.26838  -1.26799
 Alpha  occ. eigenvalues --   -1.24009  -1.23530  -1.23500  -1.23363  -1.23335
 Alpha  occ. eigenvalues --   -1.23262  -1.14369  -1.06803  -1.04382  -1.04057
 Alpha  occ. eigenvalues --   -0.63888  -0.56020  -0.54685  -0.53574  -0.48207
 Alpha  occ. eigenvalues --   -0.47154  -0.45070  -0.43981  -0.43220  -0.40899
 Alpha  occ. eigenvalues --   -0.39792  -0.37069  -0.25487
 Alpha virt. eigenvalues --   -0.22272  -0.19988  -0.14499  -0.13466  -0.12908
 Alpha virt. eigenvalues --   -0.12375  -0.11232  -0.11126  -0.10051  -0.08865
 Alpha virt. eigenvalues --   -0.07456  -0.07052  -0.06014  -0.05443  -0.05241

 Mulliken atomic charges:
              1
     1  O   -0.742532
     2  O   -0.928479
     3  O   -0.928046
     4  O   -0.820354
     5  P    1.370021
     6  Ca   0.886446
     7  Ca   0.886685
     8  Ca   1.276259
 Sum of Mulliken charges=   1.00000

 Dipole moment (field-independent basis, Debye):
    X=    -1.9953    Y=     0.0045    Z=    -5.6986  Tot=     6.0379
 Quadrupole moment (field-independent basis, Debye-Ang):
   XX=   -34.3411   YY=   -52.8980   ZZ=   -88.8773
   XY=    -0.0151   XZ=    13.0565   YZ=     0.0099

 Normal termination of Gaussian 03 at Fri Jun 12 17:36:14 2015.
