 Gaussian 03, Revision E.01,
 Gaussian 03:  EM64T-G03RevE.01 11-Sep-2007

 ----------------------------------------------------
 # b3lyp/6-31+G(d,p) int=ultrafine pop=(ReadRadii,MK)
 ----------------------------------------------------

 -----------------------------------
 Ca3PO4_10.mol2_plusQ.z51110.zip.xyz
 -----------------------------------
 Symbolic Z-matrix:
 Charge =  1 Multiplicity = 1

                         Standard orientation:
 ---------------------------------------------------------------------
 Center     Atomic     Atomic              Coordinates (Angstroms)
 Number     Number      Type              X           Y           Z
 ---------------------------------------------------------------------
    1          8             0       -0.311500    1.904302   -0.001022
    2          8             0       -1.061429   -0.241259   -1.200042
    3          8             0       -2.926859    1.028600   -0.001692
    4          8             0       -1.063089   -0.238639    1.201588
    5         15             0       -1.399739    0.829281   -0.000412
    6         20             0        1.094421    0.007653    0.001828
    7         20             0       -2.855748   -1.290760   -0.000272
    8         20             0        4.956282   -0.320055   -0.000782
 ---------------------------------------------------------------------

 SCF Done:  E(RB+HF-LYP) =  -2674.96209685     A.U. after    7 cycles

 The electronic state is 1-A.
 Alpha  occ. eigenvalues -- -145.55361-145.54624-145.50958 -77.28054 -19.19431
 Alpha  occ. eigenvalues --  -19.19271 -19.19019 -19.19019 -15.62407 -15.61338
 Alpha  occ. eigenvalues --  -15.57783 -12.75546 -12.75546 -12.75530 -12.74532
 Alpha  occ. eigenvalues --  -12.74524 -12.74520 -12.70994 -12.70982 -12.70910
 Alpha  occ. eigenvalues --   -6.72759  -4.89107  -4.89100  -4.89027  -1.99443
 Alpha  occ. eigenvalues --   -1.98237  -1.94840  -1.26700  -1.26700  -1.26527
 Alpha  occ. eigenvalues --   -1.26155  -1.25425  -1.25424  -1.22604  -1.22251
 Alpha  occ. eigenvalues --   -1.22219  -1.09650  -1.02145  -1.00368  -0.98481
 Alpha  occ. eigenvalues --   -0.59140  -0.49972  -0.49851  -0.49234  -0.42351
 Alpha  occ. eigenvalues --   -0.42284  -0.41915  -0.39251  -0.37310  -0.35964
 Alpha  occ. eigenvalues --   -0.34714  -0.32726  -0.31131
 Alpha virt. eigenvalues --   -0.21173  -0.20245  -0.16670  -0.16592  -0.12895
 Alpha virt. eigenvalues --   -0.11307  -0.11114  -0.09785  -0.09601  -0.08867
 Alpha virt. eigenvalues --   -0.07836  -0.06458  -0.06082  -0.05449  -0.05220

 Mulliken atomic charges:
              1
     1  O   -0.826962
     2  O   -1.012009
     3  O   -0.836898
     4  O   -1.011729
     5  P    1.582899
     6  Ca   0.955872
     7  Ca   1.474523
     8  Ca   0.674303
 Sum of Mulliken charges=   1.00000

 Dipole moment (field-independent basis, Debye):
    X=     9.0049    Y=   -13.0507    Z=     0.0056  Tot=    15.8559
 Quadrupole moment (field-independent basis, Debye-Ang):
   XX=    39.6646   YY=   -72.6856   ZZ=   -87.4134
   XY=    30.1799   XZ=    -0.0095   YZ=     0.0029

 Normal termination of Gaussian 03 at Fri Jun 12 17:35:44 2015.
