 Gaussian 03, Revision E.01,
 Gaussian 03:  EM64T-G03RevE.01 11-Sep-2007

 ----------------------------------------------------
 # b3lyp/6-31+G(d,p) int=ultrafine pop=(ReadRadii,MK)
 ----------------------------------------------------

 ------------------------------------
 Ca3PO4_106.mol2_plusQ.z51106.zip.xyz
 ------------------------------------
 Symbolic Z-matrix:
 Charge =  1 Multiplicity = 1

                         Standard orientation:
 ---------------------------------------------------------------------
 Center     Atomic     Atomic              Coordinates (Angstroms)
 Number     Number      Type              X           Y           Z
 ---------------------------------------------------------------------
    1          8             0       -0.000434   -0.001303   -1.711849
    2          8             0       -0.437318   -1.413996    0.922891
    3          8             0        1.444192    0.329421    0.921881
    4          8             0       -1.005957    1.087195    0.922001
    5         15             0        0.000666    0.001912    1.718051
    6         20             0        1.322297   -1.428102   -0.569319
    7         20             0       -1.897733   -0.432171   -0.569239
    8         20             0        0.574743    1.858313   -0.571949
 ---------------------------------------------------------------------

 SCF Done:  E(RB+HF-LYP) =  -2675.07105571     A.U. after    8 cycles

 The electronic state is 1-A.
 Alpha  occ. eigenvalues -- -145.49638-145.49632-145.49631 -77.25055 -19.21254
 Alpha  occ. eigenvalues --  -19.21249 -19.21161 -19.15934 -15.56471 -15.56467
 Alpha  occ. eigenvalues --  -15.56467 -12.69668 -12.69667 -12.69666 -12.69646
 Alpha  occ. eigenvalues --  -12.69645 -12.69643 -12.69598 -12.69597 -12.69596
 Alpha  occ. eigenvalues --   -6.70085  -4.86433  -4.86433  -4.85897  -1.93821
 Alpha  occ. eigenvalues --   -1.93736  -1.93735  -1.22374  -1.21693  -1.21692
 Alpha  occ. eigenvalues --   -1.21303  -1.21136  -1.21062  -1.21061  -1.20639
 Alpha  occ. eigenvalues --   -1.20639  -1.06753  -1.00374  -1.00328  -0.90932
 Alpha  occ. eigenvalues --   -0.62641  -0.50530  -0.50518  -0.47957  -0.43356
 Alpha  occ. eigenvalues --   -0.43352  -0.38354  -0.38327  -0.38176  -0.36131
 Alpha  occ. eigenvalues --   -0.36126  -0.34585  -0.30859
 Alpha virt. eigenvalues --   -0.19948  -0.18025  -0.18025  -0.12553  -0.12552
 Alpha virt. eigenvalues --   -0.10892  -0.09477  -0.09477  -0.08338  -0.07770
 Alpha virt. eigenvalues --   -0.06545  -0.06114  -0.06113  -0.04765  -0.04716

 Mulliken atomic charges:
              1
     1  O   -1.250982
     2  O   -1.031905
     3  O   -1.032341
     4  O   -1.032403
     5  P    1.097914
     6  Ca   1.416624
     7  Ca   1.416646
     8  Ca   1.416448
 Sum of Mulliken charges=   1.00000

 Dipole moment (field-independent basis, Debye):
    X=    -0.0044    Y=    -0.0125    Z=    -8.2283  Tot=     8.2283
 Quadrupole moment (field-independent basis, Debye-Ang):
   XX=   -40.0300   YY=   -40.0413   ZZ=   -90.0142
   XY=    -0.0039   XZ=    -0.0140   YZ=    -0.0426

 Normal termination of Gaussian 03 at Fri Jun 12 17:36:10 2015.
