 Gaussian 03, Revision E.01,
 Gaussian 03:  EM64T-G03RevE.01 11-Sep-2007

 ----------------------------------------------------
 # b3lyp/6-31+G(d,p) int=ultrafine pop=(ReadRadii,MK)
 ----------------------------------------------------

 ------------------------------------
 Ca3PO4_69.mol2c_plusQ.z51484.zip.xyz
 ------------------------------------
 Symbolic Z-matrix:
 Charge =  1 Multiplicity = 1

                         Standard orientation:
 ---------------------------------------------------------------------
 Center     Atomic     Atomic              Coordinates (Angstroms)
 Number     Number      Type              X           Y           Z
 ---------------------------------------------------------------------
    1          8             0       -1.564690    0.977709    0.006131
    2          8             0        1.120471   -0.449879   -0.778019
    3          8             0        1.123451   -0.449529    0.779791
    4          8             0       -3.069788   -0.979872   -0.006229
    5         15             0       -3.076040    0.558698   -0.004059
    6         20             0        3.379871   -0.365197   -0.003629
    7         20             0       -0.777978   -1.481730    0.004581
    8         20             0        0.661359    1.788531    0.001421
 ---------------------------------------------------------------------

 SCF Done:  E(RB+HF-LYP) =  -2674.91831206     A.U. after   12 cycles

 The electronic state is 1-A.
 Alpha  occ. eigenvalues -- -145.53443-145.51416-145.50726 -77.31500 -19.29651
 Alpha  occ. eigenvalues --  -19.29207 -19.29187 -19.28811 -15.60296 -15.58305
 Alpha  occ. eigenvalues --  -15.57679 -12.73527 -12.73523 -12.73369 -12.71512
 Alpha  occ. eigenvalues --  -12.71468 -12.71432 -12.70873 -12.70847 -12.70781
 Alpha  occ. eigenvalues --   -6.77092  -4.93523  -4.93300  -4.92876  -1.97448
 Alpha  occ. eigenvalues --   -1.95432  -1.94742  -1.25579  -1.25273  -1.25108
 Alpha  occ. eigenvalues --   -1.23248  -1.22950  -1.22832  -1.22133  -1.22099
 Alpha  occ. eigenvalues --   -1.22077  -1.15588  -1.12507  -1.09597  -0.92878
 Alpha  occ. eigenvalues --   -0.68772  -0.57750  -0.55041  -0.54193  -0.52601
 Alpha  occ. eigenvalues --   -0.52052  -0.51155  -0.46640  -0.45187  -0.42506
 Alpha  occ. eigenvalues --   -0.40160  -0.38626  -0.25347
 Alpha virt. eigenvalues --   -0.21376  -0.19582  -0.19321  -0.16490  -0.13939
 Alpha virt. eigenvalues --   -0.12060  -0.12040  -0.11081  -0.10766  -0.10642
 Alpha virt. eigenvalues --   -0.09524  -0.07754  -0.07582  -0.07281  -0.06561

 Mulliken atomic charges:
              1
     1  O   -0.728435
     2  O   -0.565575
     3  O   -0.565821
     4  O   -0.641561
     5  P    0.645311
     6  Ca   0.678673
     7  Ca   1.360481
     8  Ca   0.816927
 Sum of Mulliken charges=   1.00000

 Dipole moment (field-independent basis, Debye):
    X=     1.6450    Y=    -2.6747    Z=     0.0187  Tot=     3.1402
 Quadrupole moment (field-independent basis, Debye-Ang):
   XX=   -66.1859   YY=   -58.6455   ZZ=   -81.1596
   XY=    -6.3323   XZ=    -0.0735   YZ=    -0.0574

 Normal termination of Gaussian 03 at Fri Jun 12 17:45:12 2015.
