 Gaussian 03, Revision E.01,
 Gaussian 03:  EM64T-G03RevE.01 11-Sep-2007

 ----------------------------------------------------
 # b3lyp/6-31+G(d,p) int=ultrafine pop=(ReadRadii,MK)
 ----------------------------------------------------

 --------------------------------------
 Ca3PO4_157.mol2c_plusQc.z51687.zip.xyz
 --------------------------------------
 Symbolic Z-matrix:
 Charge =  1 Multiplicity = 1

                         Standard orientation:
 ---------------------------------------------------------------------
 Center     Atomic     Atomic              Coordinates (Angstroms)
 Number     Number      Type              X           Y           Z
 ---------------------------------------------------------------------
    1          8             0       -2.501541   -1.087039    0.783340
    2          8             0        1.959349   -0.874909    0.000710
    3          8             0       -0.385140    1.114091   -0.000080
    4          8             0       -2.501451   -1.087279   -0.783300
    5         15             0        3.546699   -0.703330   -0.000690
    6         20             0        1.726420    1.564491    0.000330
    7         20             0       -0.388531   -1.268599    0.000250
    8         20             0       -2.626400    1.005661   -0.000330
 ---------------------------------------------------------------------

 SCF Done:  E(RB+HF-LYP) =  -2674.85229006     A.U. after   11 cycles

 The electronic state is 1-A.
 Alpha  occ. eigenvalues -- -145.52190-145.48103-145.46162 -77.25949 -19.30446
 Alpha  occ. eigenvalues --  -19.20543 -19.20537 -19.16983 -15.59121 -15.54965
 Alpha  occ. eigenvalues --  -15.53019 -12.72381 -12.72319 -12.72156 -12.68176
 Alpha  occ. eigenvalues --  -12.68145 -12.68075 -12.66258 -12.66216 -12.66106
 Alpha  occ. eigenvalues --   -6.72269  -4.88983  -4.88477  -4.87596  -1.96361
 Alpha  occ. eigenvalues --   -1.92253  -1.90354  -1.24261  -1.24187  -1.23089
 Alpha  occ. eigenvalues --   -1.20686  -1.19864  -1.19439  -1.18155  -1.18056
 Alpha  occ. eigenvalues --   -1.17783  -1.11740  -1.03170  -0.91746  -0.84296
 Alpha  occ. eigenvalues --   -0.68453  -0.51858  -0.50981  -0.50719  -0.44022
 Alpha  occ. eigenvalues --   -0.42399  -0.41546  -0.37606  -0.36605  -0.35805
 Alpha  occ. eigenvalues --   -0.31051  -0.30804  -0.29370
 Alpha virt. eigenvalues --   -0.25147  -0.20606  -0.17848  -0.14974  -0.13445
 Alpha virt. eigenvalues --   -0.11183  -0.11020  -0.11007  -0.09563  -0.09027
 Alpha virt. eigenvalues --   -0.08148  -0.07021  -0.06603  -0.05864  -0.05789

 Mulliken atomic charges:
              1
     1  O   -0.652147
     2  O   -0.575731
     3  O   -1.320997
     4  O   -0.652217
     5  P    0.051277
     6  Ca   1.308889
     7  Ca   1.392660
     8  Ca   1.448266
 Sum of Mulliken charges=   1.00000

 Dipole moment (field-independent basis, Debye):
    X=     3.2049    Y=    10.0551    Z=     0.0011  Tot=    10.5535
 Quadrupole moment (field-independent basis, Debye-Ang):
   XX=   -52.0050   YY=   -51.7121   ZZ=   -72.7094
   XY=   -13.5017   XZ=     0.0104   YZ=     0.0017

 Normal termination of Gaussian 03 at Fri Jun 12 17:39:03 2015.
