 Gaussian 03, Revision E.01,
 Gaussian 03:  EM64T-G03RevE.01 11-Sep-2007

 ----------------------------------------------------
 # b3lyp/6-31+G(d,p) int=ultrafine pop=(ReadRadii,MK)
 ----------------------------------------------------

 -----------------------------------
 Ca3PO4_43.mol2_plusQ.z51456.zip.xyz
 -----------------------------------
 Symbolic Z-matrix:
 Charge =  1 Multiplicity = 1

                         Standard orientation:
 ---------------------------------------------------------------------
 Center     Atomic     Atomic              Coordinates (Angstroms)
 Number     Number      Type              X           Y           Z
 ---------------------------------------------------------------------
    1          8             0        1.872090    0.865398   -0.000671
    2          8             0       -0.596061   -0.887031    0.777729
    3          8             0       -0.596541   -0.889061   -0.776931
    4          8             0       -2.578440    1.468080   -0.000751
    5         15             0        3.442310    0.570557   -0.000091
    6         20             0       -0.426860    1.506419    0.000279
    7         20             0       -2.839971   -0.636940   -0.000011
    8         20             0        1.444679   -1.520352    0.000049
 ---------------------------------------------------------------------

 SCF Done:  E(RB+HF-LYP) =  -2674.84098973     A.U. after   13 cycles

 The electronic state is 1-A.
 Alpha  occ. eigenvalues -- -145.53242-145.47982-145.46468 -77.26651 -19.30922
 Alpha  occ. eigenvalues --  -19.27883 -19.27494 -19.10285 -15.60132 -15.54828
 Alpha  occ. eigenvalues --  -15.53332 -12.73359 -12.73343 -12.73212 -12.68046
 Alpha  occ. eigenvalues --  -12.68010 -12.67930 -12.66585 -12.66546 -12.66381
 Alpha  occ. eigenvalues --   -6.72935  -4.89662  -4.89145  -4.88257  -1.97328
 Alpha  occ. eigenvalues --   -1.92043  -1.90638  -1.25315  -1.24974  -1.24872
 Alpha  occ. eigenvalues --   -1.20283  -1.19698  -1.19140  -1.18500  -1.18386
 Alpha  occ. eigenvalues --   -1.17684  -1.12149  -1.10821  -0.91217  -0.84452
 Alpha  occ. eigenvalues --   -0.69000  -0.52793  -0.51436  -0.51312  -0.51146
 Alpha  occ. eigenvalues --   -0.50087  -0.49071  -0.38786  -0.36624  -0.31465
 Alpha  occ. eigenvalues --   -0.30074  -0.28466  -0.28423
 Alpha virt. eigenvalues --   -0.25565  -0.20364  -0.17986  -0.15268  -0.15145
 Alpha virt. eigenvalues --   -0.11430  -0.11134  -0.11077  -0.09236  -0.09095
 Alpha virt. eigenvalues --   -0.08663  -0.08339  -0.07026  -0.06914  -0.06029

 Mulliken atomic charges:
              1
     1  O   -0.576333
     2  O   -0.694661
     3  O   -0.702503
     4  O   -1.120658
     5  P    0.046296
     6  Ca   1.354274
     7  Ca   1.361930
     8  Ca   1.331655
 Sum of Mulliken charges=   1.00000

 Dipole moment (field-independent basis, Debye):
    X=     1.8802    Y=    -8.9783    Z=     0.0383  Tot=     9.1731
 Quadrupole moment (field-independent basis, Debye-Ang):
   XX=   -52.9193   YY=   -56.1532   ZZ=   -72.7549
   XY=    14.1246   XZ=    -0.0303   YZ=    -0.0121

 Normal termination of Gaussian 03 at Fri Jun 12 17:44:07 2015.
