 Gaussian 03, Revision E.01,
 Gaussian 03:  EM64T-G03RevE.01 11-Sep-2007

 ----------------------------------------------------
 # b3lyp/6-31+G(d,p) int=ultrafine pop=(ReadRadii,MK)
 ----------------------------------------------------

 ------------------------------------
 Ca3PO4_109.mol2_plusQ.z51109.zip.xyz
 ------------------------------------
 Symbolic Z-matrix:
 Charge =  1 Multiplicity = 1

                         Standard orientation:
 ---------------------------------------------------------------------
 Center     Atomic     Atomic              Coordinates (Angstroms)
 Number     Number      Type              X           Y           Z
 ---------------------------------------------------------------------
    1          8             0        0.787690   -1.087530    0.004370
    2          8             0        2.586928    1.374312   -0.002490
    3          8             0       -1.274191   -0.087531    1.208370
    4          8             0       -1.271451   -0.092591   -1.208300
    5         15             0       -0.796570   -1.163271    0.002530
    6         20             0        0.429528    1.406250    0.001570
    7         20             0       -3.184841    0.117397   -0.002620
    8         20             0        3.021150   -0.693858   -0.001630
 ---------------------------------------------------------------------

 SCF Done:  E(RB+HF-LYP) =  -2674.97649567     A.U. after   10 cycles

 The electronic state is 1-A.
 Alpha  occ. eigenvalues -- -145.56757-145.48575-145.45328 -77.25582 -19.22426
 Alpha  occ. eigenvalues --  -19.21171 -19.21159 -19.10413 -15.63557 -15.55419
 Alpha  occ. eigenvalues --  -15.52234 -12.76798 -12.76705 -12.76692 -12.68658
 Alpha  occ. eigenvalues --  -12.68582 -12.68513 -12.65469 -12.65459 -12.65280
 Alpha  occ. eigenvalues --   -6.70798  -4.87153  -4.87137  -4.86673  -2.00527
 Alpha  occ. eigenvalues --   -1.92612  -1.89551  -1.28240  -1.27874  -1.27591
 Alpha  occ. eigenvalues --   -1.20373  -1.20270  -1.19539  -1.17650  -1.17207
 Alpha  occ. eigenvalues --   -1.16508  -1.08153  -1.02179  -0.99472  -0.84547
 Alpha  occ. eigenvalues --   -0.63130  -0.51907  -0.49617  -0.49454  -0.43731
 Alpha  occ. eigenvalues --   -0.42325  -0.40394  -0.38562  -0.35398  -0.32422
 Alpha  occ. eigenvalues --   -0.30217  -0.28666  -0.28303
 Alpha virt. eigenvalues --   -0.23287  -0.18053  -0.16529  -0.13556  -0.13353
 Alpha virt. eigenvalues --   -0.10189  -0.09901  -0.08708  -0.07807  -0.07744
 Alpha virt. eigenvalues --   -0.07287  -0.06284  -0.05721  -0.05544  -0.05420

 Mulliken atomic charges:
              1
     1  O   -1.048364
     2  O   -1.143081
     3  O   -0.873498
     4  O   -0.873144
     5  P    0.779546
     6  Ca   1.323697
     7  Ca   1.450941
     8  Ca   1.383905
 Sum of Mulliken charges=   1.00000

 Dipole moment (field-independent basis, Debye):
    X=    -7.9314    Y=    -0.4448    Z=    -0.0148  Tot=     7.9438
 Quadrupole moment (field-independent basis, Debye-Ang):
   XX=    13.2489   YY=   -68.8177   ZZ=   -82.8369
   XY=   -35.8400   XZ=     0.0759   YZ=     0.0361

 Normal termination of Gaussian 03 at Fri Jun 12 17:36:20 2015.
