 Gaussian 03, Revision E.01,
 Gaussian 03:  EM64T-G03RevE.01 11-Sep-2007

 ----------------------------------------------------
 # b3lyp/6-31+G(d,p) int=ultrafine pop=(ReadRadii,MK)
 ----------------------------------------------------

 ------------------------------------
 Ca3PO4_15.mol2c_plusQ.z51165.zip.xyz
 ------------------------------------
 Symbolic Z-matrix:
 Charge =  1 Multiplicity = 1

                         Standard orientation:
 ---------------------------------------------------------------------
 Center     Atomic     Atomic              Coordinates (Angstroms)
 Number     Number      Type              X           Y           Z
 ---------------------------------------------------------------------
    1          8             0       -0.902773    1.174963    0.921250
    2          8             0       -0.566086   -1.367402    0.923200
    3          8             0        0.000170   -0.001599   -1.712090
    4          8             0        1.467427    0.195272    0.922700
    5         15             0       -0.000831    0.001631    1.718170
    6         20             0        1.186213   -1.543354   -0.568650
    7         20             0       -1.928979   -0.255895   -0.570690
    8         20             0        0.743895    1.797533   -0.571310
 ---------------------------------------------------------------------

 SCF Done:  E(RB+HF-LYP) =  -2675.07103854     A.U. after    8 cycles

 The electronic state is 1-A.
 Alpha  occ. eigenvalues -- -145.49643-145.49636-145.49631 -77.25056 -19.21228
 Alpha  occ. eigenvalues --  -19.21228 -19.21209 -19.15940 -15.56477 -15.56471
 Alpha  occ. eigenvalues --  -15.56466 -12.69675 -12.69670 -12.69665 -12.69653
 Alpha  occ. eigenvalues --  -12.69647 -12.69642 -12.69605 -12.69600 -12.69595
 Alpha  occ. eigenvalues --   -6.70085  -4.86434  -4.86434  -4.85898  -1.93823
 Alpha  occ. eigenvalues --   -1.93741  -1.93736  -1.22376  -1.21696  -1.21693
 Alpha  occ. eigenvalues --   -1.21306  -1.21139  -1.21065  -1.21063  -1.20644
 Alpha  occ. eigenvalues --   -1.20639  -1.06760  -1.00358  -1.00350  -0.90937
 Alpha  occ. eigenvalues --   -0.62641  -0.50529  -0.50526  -0.47961  -0.43358
 Alpha  occ. eigenvalues --   -0.43356  -0.38344  -0.38338  -0.38176  -0.36133
 Alpha  occ. eigenvalues --   -0.36131  -0.34589  -0.30859
 Alpha virt. eigenvalues --   -0.19949  -0.18028  -0.18025  -0.12556  -0.12552
 Alpha virt. eigenvalues --   -0.10893  -0.09478  -0.09477  -0.08339  -0.07772
 Alpha virt. eigenvalues --   -0.06545  -0.06114  -0.06114  -0.04765  -0.04716

 Mulliken atomic charges:
              1
     1  O   -1.032271
     2  O   -1.032205
     3  O   -1.251033
     4  O   -1.032449
     5  P    1.098078
     6  Ca   1.416681
     7  Ca   1.416683
     8  Ca   1.416515
 Sum of Mulliken charges=   1.00000

 Dipole moment (field-independent basis, Debye):
    X=     0.0076    Y=    -0.0107    Z=    -8.2296  Tot=     8.2296
 Quadrupole moment (field-independent basis, Debye-Ang):
   XX=   -40.0203   YY=   -40.0381   ZZ=   -90.0200
   XY=     0.0001   XZ=     0.0109   YZ=    -0.0411

 Normal termination of Gaussian 03 at Fri Jun 12 17:39:01 2015.
