 Gaussian 03, Revision E.01,
 Gaussian 03:  EM64T-G03RevE.01 11-Sep-2007

 ----------------------------------------------------
 # b3lyp/6-31+G(d,p) int=ultrafine pop=(ReadRadii,MK)
 ----------------------------------------------------

 -----------------------------------
 Ca3PO4_9.mol2c_plusQ.z51518.zip.xyz
 -----------------------------------
 Symbolic Z-matrix:
 Charge =  1 Multiplicity = 1

                         Standard orientation:
 ---------------------------------------------------------------------
 Center     Atomic     Atomic              Coordinates (Angstroms)
 Number     Number      Type              X           Y           Z
 ---------------------------------------------------------------------
    1          8             0        1.331593   -0.816246   -0.241979
    2          8             0       -2.775458   -0.522286    0.420871
    3          8             0       -2.299679   -0.070415   -0.918369
    4          8             0       -1.654808   -0.268273    1.373641
    5         15             0        1.246209    0.881604   -0.929169
    6         20             0       -1.340183    1.714328    0.206361
    7         20             0       -0.753295   -1.656011   -0.250449
    8         20             0        3.318161   -0.048632    0.487301
 ---------------------------------------------------------------------

 SCF Done:  E(RB+HF-LYP) =  -2674.73729119     A.U. after   10 cycles

 The electronic state is 1-A.
 Alpha  occ. eigenvalues -- -145.53543-145.50103-145.49797 -77.15707 -19.34826
 Alpha  occ. eigenvalues --  -19.25824 -19.25821 -19.21423 -15.60454 -15.56990
 Alpha  occ. eigenvalues --  -15.56621 -12.73669 -12.73626 -12.73554 -12.70190
 Alpha  occ. eigenvalues --  -12.70166 -12.70111 -12.69850 -12.69820 -12.69721
 Alpha  occ. eigenvalues --   -6.62295  -4.78826  -4.78282  -4.78013  -1.97493
 Alpha  occ. eigenvalues --   -1.94172  -1.93827  -1.25035  -1.24760  -1.24700
 Alpha  occ. eigenvalues --   -1.24655  -1.21640  -1.21531  -1.21396  -1.21287
 Alpha  occ. eigenvalues --   -1.21143  -1.17320  -1.01702  -0.99556  -0.86191
 Alpha  occ. eigenvalues --   -0.61556  -0.55742  -0.53572  -0.53246  -0.44401
 Alpha  occ. eigenvalues --   -0.42534  -0.41701  -0.41389  -0.39673  -0.37760
 Alpha  occ. eigenvalues --   -0.33663  -0.29160  -0.26237
 Alpha virt. eigenvalues --   -0.21868  -0.17840  -0.17487  -0.13764  -0.13416
 Alpha virt. eigenvalues --   -0.12060  -0.11142  -0.10381  -0.09878  -0.09439
 Alpha virt. eigenvalues --   -0.07964  -0.07221  -0.06560  -0.06109  -0.05814

 Mulliken atomic charges:
              1
     1  O   -0.856851
     2  O   -0.072774
     3  O   -0.618490
     4  O   -0.608220
     5  P   -0.709079
     6  Ca   1.209198
     7  Ca   1.482391
     8  Ca   1.173824
 Sum of Mulliken charges=   1.00000

 Dipole moment (field-independent basis, Debye):
    X=     7.1727    Y=    -1.8157    Z=     3.3386  Tot=     8.1173
 Quadrupole moment (field-independent basis, Debye-Ang):
   XX=   -37.8994   YY=   -41.3898   ZZ=   -84.9377
   XY=   -14.0350   XZ=    13.0967   YZ=     6.9037

 Normal termination of Gaussian 03 at Fri Jun 12 17:47:02 2015.
