 Gaussian 03, Revision E.01,
 Gaussian 03:  EM64T-G03RevE.01 11-Sep-2007

 ----------------------------------------------------
 # b3lyp/6-31+G(d,p) int=ultrafine pop=(ReadRadii,MK)
 ----------------------------------------------------

 ------------------------------------
 Ca3PO4_168.mol2_plusQ.z51174.zip.xyz
 ------------------------------------
 Symbolic Z-matrix:
 Charge =  1 Multiplicity = 1

                         Standard orientation:
 ---------------------------------------------------------------------
 Center     Atomic     Atomic              Coordinates (Angstroms)
 Number     Number      Type              X           Y           Z
 ---------------------------------------------------------------------
    1          8             0       -0.748566    1.277395    0.922380
    2          8             0       -0.731492   -1.287260    0.922350
    3          8             0       -0.000590    0.000008   -1.711980
    4          8             0        1.481238    0.009857    0.922300
    5         15             0        0.000180   -0.000017    1.718090
    6         20             0        0.961673    1.691480   -0.570400
    7         20             0       -1.946158   -0.012949   -0.569770
    8         20             0        0.984115   -1.678517   -0.570420
 ---------------------------------------------------------------------

 SCF Done:  E(RB+HF-LYP) =  -2675.07103992     A.U. after    8 cycles

 The electronic state is 1-A.
 Alpha  occ. eigenvalues -- -145.49642-145.49636-145.49634 -77.25055 -19.21229
 Alpha  occ. eigenvalues --  -19.21229 -19.21216 -19.15947 -15.56476 -15.56471
 Alpha  occ. eigenvalues --  -15.56470 -12.69674 -12.69670 -12.69669 -12.69651
 Alpha  occ. eigenvalues --  -12.69648 -12.69646 -12.69604 -12.69600 -12.69599
 Alpha  occ. eigenvalues --   -6.70086  -4.86434  -4.86434  -4.85898  -1.93824
 Alpha  occ. eigenvalues --   -1.93740  -1.93738  -1.22378  -1.21696  -1.21695
 Alpha  occ. eigenvalues --   -1.21307  -1.21140  -1.21066  -1.21064  -1.20644
 Alpha  occ. eigenvalues --   -1.20642  -1.06759  -1.00361  -1.00350  -0.90944
 Alpha  occ. eigenvalues --   -0.62644  -0.50529  -0.50526  -0.47961  -0.43359
 Alpha  occ. eigenvalues --   -0.43357  -0.38347  -0.38341  -0.38179  -0.36138
 Alpha  occ. eigenvalues --   -0.36138  -0.34594  -0.30861
 Alpha virt. eigenvalues --   -0.19950  -0.18027  -0.18025  -0.12554  -0.12554
 Alpha virt. eigenvalues --   -0.10894  -0.09479  -0.09477  -0.08338  -0.07772
 Alpha virt. eigenvalues --   -0.06546  -0.06114  -0.06114  -0.04765  -0.04716

 Mulliken atomic charges:
              1
     1  O   -1.032225
     2  O   -1.032222
     3  O   -1.251218
     4  O   -1.032216
     5  P    1.097994
     6  Ca   1.416594
     7  Ca   1.416700
     8  Ca   1.416593
 Sum of Mulliken charges=   1.00000

 Dipole moment (field-independent basis, Debye):
    X=    -0.0046    Y=     0.0000    Z=    -8.2285  Tot=     8.2285
 Quadrupole moment (field-independent basis, Debye-Ang):
   XX=   -40.0241   YY=   -40.0355   ZZ=   -90.0148
   XY=     0.0000   XZ=    -0.0172   YZ=     0.0001

 Normal termination of Gaussian 03 at Fri Jun 12 17:39:13 2015.
