 Gaussian 03, Revision E.01,
 Gaussian 03:  EM64T-G03RevE.01 11-Sep-2007

 ----------------------------------------------------
 # b3lyp/6-31+G(d,p) int=ultrafine pop=(ReadRadii,MK)
 ----------------------------------------------------

 -------------------------------------
 Ca3PO4_192.mol2c_plusQ.z51201.zip.xyz
 -------------------------------------
 Symbolic Z-matrix:
 Charge =  1 Multiplicity = 1

                         Standard orientation:
 ---------------------------------------------------------------------
 Center     Atomic     Atomic              Coordinates (Angstroms)
 Number     Number      Type              X           Y           Z
 ---------------------------------------------------------------------
    1          8             0       -0.586789   -1.253841   -0.108030
    2          8             0        2.692069    0.000384   -0.333180
    3          8             0       -2.238231    0.001017    1.331830
    4          8             0       -0.587382    1.253439   -0.110700
    5         15             0       -0.691141    0.001079    1.034120
    6         20             0        1.624262   -1.818128   -0.075740
    7         20             0       -2.440671   -0.001404   -0.935370
    8         20             0        1.622897    1.818322   -0.076450
 ---------------------------------------------------------------------

 SCF Done:  E(RB+HF-LYP) =  -2674.99967935     A.U. after    8 cycles

 The electronic state is 1-A.
 Alpha  occ. eigenvalues -- -145.52901-145.48521-145.48513 -77.24508 -19.21557
 Alpha  occ. eigenvalues --  -19.21556 -19.18912 -19.12185 -15.59697 -15.55423
 Alpha  occ. eigenvalues --  -15.55416 -12.72880 -12.72875 -12.72864 -12.68676
 Alpha  occ. eigenvalues --  -12.68669 -12.68607 -12.68600 -12.68482 -12.68475
 Alpha  occ. eigenvalues --   -6.69824  -4.86204  -4.86127  -4.85706  -1.96740
 Alpha  occ. eigenvalues --   -1.92687  -1.92660  -1.24716  -1.24002  -1.23966
 Alpha  occ. eigenvalues --   -1.20595  -1.20524  -1.20409  -1.20153  -1.19795
 Alpha  occ. eigenvalues --   -1.19303  -1.06954  -0.99977  -0.99929  -0.86569
 Alpha  occ. eigenvalues --   -0.61878  -0.49711  -0.49548  -0.48420  -0.42891
 Alpha  occ. eigenvalues --   -0.42356  -0.38148  -0.37916  -0.34575  -0.32842
 Alpha  occ. eigenvalues --   -0.32540  -0.30662  -0.30259
 Alpha virt. eigenvalues --   -0.20426  -0.18306  -0.17398  -0.12505  -0.11991
 Alpha virt. eigenvalues --   -0.10384  -0.10049  -0.08960  -0.08367  -0.08011
 Alpha virt. eigenvalues --   -0.07399  -0.06923  -0.06467  -0.05552  -0.05311

 Mulliken atomic charges:
              1
     1  O   -0.957545
     2  O   -1.183475
     3  O   -0.880170
     4  O   -0.957184
     5  P    0.749558
     6  Ca   1.424336
     7  Ca   1.380363
     8  Ca   1.424117
 Sum of Mulliken charges=   1.00000

 Dipole moment (field-independent basis, Debye):
    X=    -1.5103    Y=    -0.0118    Z=    -7.4978  Tot=     7.6484
 Quadrupole moment (field-independent basis, Debye-Ang):
   XX=   -53.1022   YY=   -32.2950   ZZ=   -70.0890
   XY=     0.0092   XZ=    28.1146   YZ=     0.0086

 Normal termination of Gaussian 03 at Fri Jun 12 17:40:27 2015.
