 Gaussian 03, Revision E.01,
 Gaussian 03:  EM64T-G03RevE.01 11-Sep-2007

 ----------------------------------------------------
 # b3lyp/6-31+G(d,p) int=ultrafine pop=(ReadRadii,MK)
 ----------------------------------------------------

 --------------------------------------
 Ca3PO4_204.mol2cc_plusQ.z51414.zip.xyz
 --------------------------------------
 Symbolic Z-matrix:
 Charge =  1 Multiplicity = 1

                         Standard orientation:
 ---------------------------------------------------------------------
 Center     Atomic     Atomic              Coordinates (Angstroms)
 Number     Number      Type              X           Y           Z
 ---------------------------------------------------------------------
    1          8             0       -0.844791    1.215037    0.923311
    2          8             0       -0.629019   -1.340418    0.922631
    3          8             0        1.476570    0.123586    0.921111
    4          8             0       -0.001498    0.001012   -1.712239
    5         15             0        0.001629   -0.000972    1.718231
    6         20             0        0.827681    1.761098   -0.569869
    7         20             0        1.110455   -1.597068   -0.571809
    8         20             0       -1.939862   -0.162988   -0.568919
 ---------------------------------------------------------------------

 SCF Done:  E(RB+HF-LYP) =  -2675.07103656     A.U. after    8 cycles

 The electronic state is 1-A.
 Alpha  occ. eigenvalues -- -145.49645-145.49635-145.49631 -77.25057 -19.21242
 Alpha  occ. eigenvalues --  -19.21224 -19.21202 -19.15941 -15.56479 -15.56469
 Alpha  occ. eigenvalues --  -15.56467 -12.69677 -12.69667 -12.69666 -12.69655
 Alpha  occ. eigenvalues --  -12.69645 -12.69643 -12.69608 -12.69597 -12.69597
 Alpha  occ. eigenvalues --   -6.70087  -4.86435  -4.86435  -4.85899  -1.93823
 Alpha  occ. eigenvalues --   -1.93741  -1.93735  -1.22376  -1.21696  -1.21694
 Alpha  occ. eigenvalues --   -1.21306  -1.21139  -1.21065  -1.21062  -1.20645
 Alpha  occ. eigenvalues --   -1.20639  -1.06757  -1.00361  -1.00344  -0.90936
 Alpha  occ. eigenvalues --   -0.62643  -0.50528  -0.50524  -0.47960  -0.43357
 Alpha  occ. eigenvalues --   -0.43355  -0.38345  -0.38336  -0.38176  -0.36133
 Alpha  occ. eigenvalues --   -0.36130  -0.34589  -0.30861
 Alpha virt. eigenvalues --   -0.19949  -0.18028  -0.18024  -0.12555  -0.12552
 Alpha virt. eigenvalues --   -0.10893  -0.09479  -0.09476  -0.08338  -0.07771
 Alpha virt. eigenvalues --   -0.06545  -0.06114  -0.06113  -0.04765  -0.04716

 Mulliken atomic charges:
              1
     1  O   -1.032227
     2  O   -1.032413
     3  O   -1.032306
     4  O   -1.251052
     5  P    1.098056
     6  Ca   1.416592
     7  Ca   1.416484
     8  Ca   1.416867
 Sum of Mulliken charges=   1.00000

 Dipole moment (field-independent basis, Debye):
    X=    -0.0115    Y=     0.0057    Z=    -8.2276  Tot=     8.2277
 Quadrupole moment (field-independent basis, Debye-Ang):
   XX=   -40.0223   YY=   -40.0376   ZZ=   -90.0202
   XY=     0.0064   XZ=    -0.0368   YZ=     0.0287

 Normal termination of Gaussian 03 at Fri Jun 12 17:41:37 2015.
