 Gaussian 03, Revision E.01,
 Gaussian 03:  EM64T-G03RevE.01 11-Sep-2007

 ----------------------------------------------------
 # b3lyp/6-31+G(d,p) int=ultrafine pop=(ReadRadii,MK)
 ----------------------------------------------------

 -------------------------------------
 Ca3PO4_206.mol2c_plusQ.z51416.zip.xyz
 -------------------------------------
 Symbolic Z-matrix:
 Charge =  1 Multiplicity = 1

                         Standard orientation:
 ---------------------------------------------------------------------
 Center     Atomic     Atomic              Coordinates (Angstroms)
 Number     Number      Type              X           Y           Z
 ---------------------------------------------------------------------
    1          8             0       -2.577736    1.467686   -0.001278
    2          8             0       -0.596842   -0.887338    0.778142
    3          8             0        1.872262    0.866597    0.001982
    4          8             0       -0.595812   -0.888388   -0.776528
    5         15             0        3.441802    0.569614   -0.004258
    6         20             0       -2.839761   -0.637033   -0.002428
    7         20             0        1.444067   -1.520702    0.002142
    8         20             0       -0.426406    1.507102    0.002552
 ---------------------------------------------------------------------

 SCF Done:  E(RB+HF-LYP) =  -2674.84098451     A.U. after   13 cycles

 The electronic state is 1-A.
 Alpha  occ. eigenvalues -- -145.53237-145.47983-145.46461 -77.26640 -19.30919
 Alpha  occ. eigenvalues --  -19.27902 -19.27469 -19.10310 -15.60128 -15.54828
 Alpha  occ. eigenvalues --  -15.53326 -12.73355 -12.73339 -12.73208 -12.68046
 Alpha  occ. eigenvalues --  -12.68011 -12.67931 -12.66580 -12.66541 -12.66375
 Alpha  occ. eigenvalues --   -6.72923  -4.89650  -4.89133  -4.88246  -1.97325
 Alpha  occ. eigenvalues --   -1.92042  -1.90635  -1.25313  -1.24971  -1.24870
 Alpha  occ. eigenvalues --   -1.20281  -1.19697  -1.19140  -1.18497  -1.18383
 Alpha  occ. eigenvalues --   -1.17683  -1.12149  -1.10819  -0.91218  -0.84469
 Alpha  occ. eigenvalues --   -0.68992  -0.52790  -0.51432  -0.51304  -0.51145
 Alpha  occ. eigenvalues --   -0.50086  -0.49073  -0.38788  -0.36624  -0.31458
 Alpha  occ. eigenvalues --   -0.30091  -0.28480  -0.28439
 Alpha virt. eigenvalues --   -0.25555  -0.20360  -0.17988  -0.15267  -0.15143
 Alpha virt. eigenvalues --   -0.11426  -0.11134  -0.11074  -0.09236  -0.09092
 Alpha virt. eigenvalues --   -0.08662  -0.08337  -0.07025  -0.06911  -0.06030

 Mulliken atomic charges:
              1
     1  O   -1.121737
     2  O   -0.703007
     3  O   -0.575947
     4  O   -0.694180
     5  P    0.046810
     6  Ca   1.362361
     7  Ca   1.331006
     8  Ca   1.354695
 Sum of Mulliken charges=   1.00000

 Dipole moment (field-independent basis, Debye):
    X=     1.8887    Y=    -8.9774    Z=    -0.0216  Tot=     9.1740
 Quadrupole moment (field-independent basis, Debye-Ang):
   XX=   -52.9060   YY=   -56.1314   ZZ=   -72.7492
   XY=    14.1475   XZ=     0.0757   YZ=     0.0456

 Normal termination of Gaussian 03 at Fri Jun 12 17:42:16 2015.
