 Gaussian 03, Revision E.01,
 Gaussian 03:  EM64T-G03RevE.01 11-Sep-2007

 ----------------------------------------------------
 # b3lyp/6-31+G(d,p) int=ultrafine pop=(ReadRadii,MK)
 ----------------------------------------------------

 -------------------------------------
 Ca3PO4_114.mol2c_plusQ.z51115.zip.xyz
 -------------------------------------
 Symbolic Z-matrix:
 Charge =  1 Multiplicity = 1

                         Standard orientation:
 ---------------------------------------------------------------------
 Center     Atomic     Atomic              Coordinates (Angstroms)
 Number     Number      Type              X           Y           Z
 ---------------------------------------------------------------------
    1          8             0        2.047826   -0.887370   -0.784811
    2          8             0       -2.259175    0.777925    0.000319
    3          8             0        2.047196   -0.885790    0.785619
    4          8             0       -1.737139   -1.709028   -0.000371
    5         15             0       -2.855753   -0.642342   -0.001721
    6         20             0       -0.889274    2.626647    0.001179
    7         20             0        2.525648    1.176447   -0.001441
    8         20             0        0.465958   -2.239631    0.001249
 ---------------------------------------------------------------------

 SCF Done:  E(RB+HF-LYP) =  -2674.90063730     A.U. after   10 cycles

 The electronic state is 1-A.
 Alpha  occ. eigenvalues -- -145.51406-145.50957-145.49492 -77.29437 -19.27283
 Alpha  occ. eigenvalues --  -19.27145 -19.23961 -19.23931 -15.58396 -15.57831
 Alpha  occ. eigenvalues --  -15.56467 -12.71590 -12.71575 -12.71465 -12.71064
 Alpha  occ. eigenvalues --  -12.71049 -12.70903 -12.69684 -12.69652 -12.69538
 Alpha  occ. eigenvalues --   -6.74924  -4.91369  -4.91150  -4.90701  -1.95526
 Alpha  occ. eigenvalues --   -1.95025  -1.93677  -1.23157  -1.23028  -1.22961
 Alpha  occ. eigenvalues --   -1.22711  -1.22658  -1.22631  -1.21318  -1.21153
 Alpha  occ. eigenvalues --   -1.20984  -1.13243  -1.07948  -1.06513  -0.87737
 Alpha  occ. eigenvalues --   -0.67205  -0.56772  -0.52050  -0.51926  -0.47330
 Alpha  occ. eigenvalues --   -0.46451  -0.45148  -0.44571  -0.43333  -0.39977
 Alpha  occ. eigenvalues --   -0.35755  -0.32201  -0.27374
 Alpha virt. eigenvalues --   -0.19207  -0.18703  -0.17854  -0.14891  -0.13673
 Alpha virt. eigenvalues --   -0.12168  -0.11966  -0.10033  -0.09275  -0.08009
 Alpha virt. eigenvalues --   -0.07804  -0.07422  -0.06922  -0.06779  -0.05864

 Mulliken atomic charges:
              1
     1  O   -0.642144
     2  O   -0.627217
     3  O   -0.641424
     4  O   -0.712037
     5  P    0.677931
     6  Ca   0.586279
     7  Ca   0.912939
     8  Ca   1.445674
 Sum of Mulliken charges=   1.00000

 Dipole moment (field-independent basis, Debye):
    X=     1.8191    Y=     0.6428    Z=     0.0062  Tot=     1.9293
 Quadrupole moment (field-independent basis, Debye-Ang):
   XX=   -62.3696   YY=   -34.5744   ZZ=   -80.2285
   XY=     0.0057   XZ=    -0.0197   YZ=    -0.0173

 Normal termination of Gaussian 03 at Fri Jun 12 17:36:09 2015.
