 Gaussian 03, Revision E.01,
 Gaussian 03:  EM64T-G03RevE.01 11-Sep-2007

 ----------------------------------------------------
 # b3lyp/6-31+G(d,p) int=ultrafine pop=(ReadRadii,MK)
 ----------------------------------------------------

 ------------------------------------
 Ca3PO4_84.mol2c_plusQ.z51501.zip.xyz
 ------------------------------------
 Symbolic Z-matrix:
 Charge =  1 Multiplicity = 1

                         Standard orientation:
 ---------------------------------------------------------------------
 Center     Atomic     Atomic              Coordinates (Angstroms)
 Number     Number      Type              X           Y           Z
 ---------------------------------------------------------------------
    1          8             0        1.044959    0.187209    0.781600
    2          8             0        1.044659    0.187249   -0.781490
    3          8             0       -2.356541    1.142031   -0.000400
    4          8             0       -2.055081   -1.370230    0.000950
    5         15             0       -3.087141   -0.222149   -0.000590
    6         20             0        3.295819    0.022179   -0.000280
    7         20             0        0.181418   -1.866820    0.000090
    8         20             0       -0.233080    1.952750    0.000370
 ---------------------------------------------------------------------

 SCF Done:  E(RB+HF-LYP) =  -2674.91819254     A.U. after   13 cycles

 The electronic state is 1-A.
 Alpha  occ. eigenvalues -- -145.53258-145.51953-145.50878 -77.29674 -19.29905
 Alpha  occ. eigenvalues --  -19.29900 -19.27465 -19.27375 -15.60132 -15.58850
 Alpha  occ. eigenvalues --  -15.57846 -12.73351 -12.73316 -12.73247 -12.72068
 Alpha  occ. eigenvalues --  -12.72015 -12.71974 -12.71039 -12.71009 -12.70947
 Alpha  occ. eigenvalues --   -6.75177  -4.91619  -4.91402  -4.90951  -1.97251
 Alpha  occ. eigenvalues --   -1.95992  -1.94925  -1.25614  -1.24837  -1.24754
 Alpha  occ. eigenvalues --   -1.23723  -1.23583  -1.23446  -1.22367  -1.22318
 Alpha  occ. eigenvalues --   -1.22280  -1.13590  -1.12927  -1.08059  -0.93677
 Alpha  occ. eigenvalues --   -0.67265  -0.56834  -0.53254  -0.52926  -0.52432
 Alpha  occ. eigenvalues --   -0.52213  -0.51587  -0.45276  -0.43337  -0.40605
 Alpha  occ. eigenvalues --   -0.40468  -0.39805  -0.25621
 Alpha virt. eigenvalues --   -0.20923  -0.19470  -0.19412  -0.17016  -0.14324
 Alpha virt. eigenvalues --   -0.12189  -0.12121  -0.11692  -0.10934  -0.10722
 Alpha virt. eigenvalues --   -0.08671  -0.08076  -0.07726  -0.07167  -0.06157

 Mulliken atomic charges:
              1
     1  O   -0.567049
     2  O   -0.567072
     3  O   -0.704776
     4  O   -0.695108
     5  P    0.625996
     6  Ca   0.707610
     7  Ca   0.966985
     8  Ca   1.233414
 Sum of Mulliken charges=   1.00000

 Dipole moment (field-independent basis, Debye):
    X=     3.4342    Y=     2.1735    Z=     0.0002  Tot=     4.0642
 Quadrupole moment (field-independent basis, Debye-Ang):
   XX=   -68.7708   YY=   -52.8502   ZZ=   -81.1998
   XY=     0.8102   XZ=    -0.0010   YZ=     0.0080

 Normal termination of Gaussian 03 at Fri Jun 12 17:46:13 2015.
