 Gaussian 03, Revision E.01,
 Gaussian 03:  EM64T-G03RevE.01 11-Sep-2007

 ----------------------------------------------------
 # b3lyp/6-31+G(d,p) int=ultrafine pop=(ReadRadii,MK)
 ----------------------------------------------------

 -------------------------------------
 Ca3PO4_214.mol2c_plusQ.z51425.zip.xyz
 -------------------------------------
 Symbolic Z-matrix:
 Charge =  1 Multiplicity = 1

                         Standard orientation:
 ---------------------------------------------------------------------
 Center     Atomic     Atomic              Coordinates (Angstroms)
 Number     Number      Type              X           Y           Z
 ---------------------------------------------------------------------
    1          8             0        1.806370   -1.270720   -0.000310
    2          8             0        4.116719    0.000121    0.000720
    3          8             0        1.806098    1.270420   -0.000330
    4          8             0       -1.492921    0.000109    0.000020
    5         15             0        2.646329   -0.000079    0.000040
    6         20             0       -0.388492    1.914209   -0.000150
    7         20             0       -3.702301   -0.000142    0.000240
    8         20             0       -0.388460   -1.913981   -0.000160
 ---------------------------------------------------------------------

 SCF Done:  E(RB+HF-LYP) =  -2674.97689657     A.U. after    9 cycles

 The electronic state is 1-A.
 Alpha  occ. eigenvalues -- -145.52335-145.52334-145.50956 -77.34950 -19.28997
 Alpha  occ. eigenvalues --  -19.28997 -19.26684 -19.20236 -15.59256 -15.59255
 Alpha  occ. eigenvalues --  -15.57967 -12.72495 -12.72494 -12.72415 -12.72415
 Alpha  occ. eigenvalues --  -12.72347 -12.72346 -12.71157 -12.71155 -12.71027
 Alpha  occ. eigenvalues --   -6.80139  -4.96749  -4.96291  -4.96194  -1.96438
 Alpha  occ. eigenvalues --   -1.96423  -1.95136  -1.24175  -1.24168  -1.24158
 Alpha  occ. eigenvalues --   -1.23956  -1.23854  -1.23329  -1.22640  -1.22628
 Alpha  occ. eigenvalues --   -1.22153  -1.17505  -1.10411  -1.09574  -0.95307
 Alpha  occ. eigenvalues --   -0.66891  -0.59086  -0.55705  -0.55031  -0.49447
 Alpha  occ. eigenvalues --   -0.47082  -0.46833  -0.44579  -0.41727  -0.41293
 Alpha  occ. eigenvalues --   -0.41033  -0.39082  -0.26855
 Alpha virt. eigenvalues --   -0.21135  -0.20725  -0.16242  -0.15329  -0.14895
 Alpha virt. eigenvalues --   -0.13921  -0.12983  -0.12812  -0.12221  -0.10897
 Alpha virt. eigenvalues --   -0.08845  -0.08404  -0.08108  -0.07693  -0.06093

 Mulliken atomic charges:
              1
     1  O   -0.814633
     2  O   -0.612886
     3  O   -0.814709
     4  O   -1.102657
     5  P    1.411630
     6  Ca   1.099186
     7  Ca   0.734991
     8  Ca   1.099078
 Sum of Mulliken charges=   1.00000

 Dipole moment (field-independent basis, Debye):
    X=   -10.6526    Y=     0.0016    Z=    -0.0010  Tot=    10.6526
 Quadrupole moment (field-independent basis, Debye-Ang):
   XX=   -73.8837   YY=   -50.6413   ZZ=   -78.7592
   XY=    -0.0011   XZ=    -0.0064   YZ=     0.0002

 Normal termination of Gaussian 03 at Fri Jun 12 17:41:51 2015.
