 Gaussian 03, Revision E.01,
 Gaussian 03:  EM64T-G03RevE.01 11-Sep-2007

 ----------------------------------------------------
 # b3lyp/6-31+G(d,p) int=ultrafine pop=(ReadRadii,MK)
 ----------------------------------------------------

 ------------------------------------
 Ca3PO4_97.mol2c_plusQ.z51515.zip.xyz
 ------------------------------------
 Symbolic Z-matrix:
 Charge =  1 Multiplicity = 1

                         Standard orientation:
 ---------------------------------------------------------------------
 Center     Atomic     Atomic              Coordinates (Angstroms)
 Number     Number      Type              X           Y           Z
 ---------------------------------------------------------------------
    1          8             0        1.207546    1.304553   -0.455181
    2          8             0        1.207496   -1.304587   -0.455181
    3          8             0       -0.749389    0.000016    1.322459
    4          8             0       -2.167199    0.000041    0.761709
    5         15             0        1.092461   -0.000017   -1.560931
    6         20             0       -1.059343   -1.691295   -0.336761
    7         20             0       -1.059275    1.691325   -0.336761
    8         20             0        1.499891   -0.000026    1.374699
 ---------------------------------------------------------------------

 SCF Done:  E(RB+HF-LYP) =  -2674.89010752     A.U. after    7 cycles

 The electronic state is 1-A.
 Alpha  occ. eigenvalues -- -145.52801-145.50766-145.50764 -77.21499 -19.26309
 Alpha  occ. eigenvalues --  -19.25932 -19.22267 -19.22266 -15.59575 -15.57616
 Alpha  occ. eigenvalues --  -15.57615 -12.72758 -12.72757 -12.72735 -12.70851
 Alpha  occ. eigenvalues --  -12.70850 -12.70800 -12.70798 -12.70719 -12.70719
 Alpha  occ. eigenvalues --   -6.67307  -4.83742  -4.83472  -4.83047  -1.96754
 Alpha  occ. eigenvalues --   -1.94813  -1.94757  -1.24736  -1.24302  -1.24212
 Alpha  occ. eigenvalues --   -1.23219  -1.22469  -1.22316  -1.22189  -1.22124
 Alpha  occ. eigenvalues --   -1.21780  -1.10223  -1.04707  -1.00706  -0.89616
 Alpha  occ. eigenvalues --   -0.63141  -0.51639  -0.49770  -0.48648  -0.48468
 Alpha  occ. eigenvalues --   -0.47616  -0.44981  -0.41625  -0.39267  -0.37730
 Alpha  occ. eigenvalues --   -0.35796  -0.34544  -0.25356
 Alpha virt. eigenvalues --   -0.20579  -0.19190  -0.18824  -0.13461  -0.13067
 Alpha virt. eigenvalues --   -0.11279  -0.11006  -0.10668  -0.09122  -0.08672
 Alpha virt. eigenvalues --   -0.08246  -0.07167  -0.06822  -0.06447  -0.05779

 Mulliken atomic charges:
              1
     1  O   -0.776228
     2  O   -0.776226
     3  O   -0.673480
     4  O   -0.608201
     5  P   -0.226524
     6  Ca   1.260328
     7  Ca   1.260325
     8  Ca   1.540006
 Sum of Mulliken charges=   1.00000

 Dipole moment (field-independent basis, Debye):
    X=    -0.9961    Y=    -0.0001    Z=     5.3800  Tot=     5.4714
 Quadrupole moment (field-independent basis, Debye-Ang):
   XX=   -67.1613   YY=   -43.8699   ZZ=   -71.2065
   XY=     0.0005   XZ=    29.6537   YZ=    -0.0005

 Normal termination of Gaussian 03 at Fri Jun 12 17:46:32 2015.
