 Gaussian 03, Revision E.01,
 Gaussian 03:  EM64T-G03RevE.01 11-Sep-2007

 ----------------------------------------------------
 # b3lyp/6-31+G(d,p) int=ultrafine pop=(ReadRadii,MK)
 ----------------------------------------------------

 -----------------------------------
 Ca3PO4_8.mol2c_plusQ.z51507.zip.xyz
 -----------------------------------
 Symbolic Z-matrix:
 Charge =  1 Multiplicity = 1

                         Standard orientation:
 ---------------------------------------------------------------------
 Center     Atomic     Atomic              Coordinates (Angstroms)
 Number     Number      Type              X           Y           Z
 ---------------------------------------------------------------------
    1          8             0        0.897258   -1.804821   -0.426349
    2          8             0       -1.717641    1.156300   -0.025919
    3          8             0        0.946159    0.185249    1.068621
    4          8             0       -0.869301    0.162100   -0.800759
    5         15             0       -0.023062   -0.952931    0.485451
    6         20             0        0.377620    2.161689   -0.053609
    7         20             0        2.876448   -0.568012   -0.208879
    8         20             0       -2.939362   -0.758510   -0.027839
 ---------------------------------------------------------------------

 SCF Done:  E(RB+HF-LYP) =  -2674.85872433     A.U. after   16 cycles

 The electronic state is 1-A.
 Alpha  occ. eigenvalues -- -145.55114-145.51530-145.51497 -77.28620 -19.32165
 Alpha  occ. eigenvalues --  -19.28841 -19.24880 -19.23535 -15.61966 -15.58430
 Alpha  occ. eigenvalues --  -15.58419 -12.75184 -12.75160 -12.75075 -12.71645
 Alpha  occ. eigenvalues --  -12.71642 -12.71599 -12.71586 -12.71531 -12.71529
 Alpha  occ. eigenvalues --   -6.73954  -4.90450  -4.90201  -4.89766  -1.98901
 Alpha  occ. eigenvalues --   -1.95535  -1.95493  -1.26851  -1.26356  -1.26238
 Alpha  occ. eigenvalues --   -1.23610  -1.23189  -1.23032  -1.22956  -1.22803
 Alpha  occ. eigenvalues --   -1.22721  -1.16175  -1.10405  -1.04808  -0.94551
 Alpha  occ. eigenvalues --   -0.66480  -0.56941  -0.55137  -0.54491  -0.51716
 Alpha  occ. eigenvalues --   -0.49802  -0.46080  -0.42459  -0.41348  -0.40493
 Alpha  occ. eigenvalues --   -0.39305  -0.36313  -0.24632
 Alpha virt. eigenvalues --   -0.22617  -0.19279  -0.15470  -0.13675  -0.13312
 Alpha virt. eigenvalues --   -0.12690  -0.11792  -0.11454  -0.10538  -0.09993
 Alpha virt. eigenvalues --   -0.08886  -0.08515  -0.07923  -0.07026  -0.06365

 Mulliken atomic charges:
              1
     1  O   -0.772619
     2  O   -0.613804
     3  O   -0.867492
     4  O   -0.430852
     5  P    0.769447
     6  Ca   0.966053
     7  Ca   0.879431
     8  Ca   1.069835
 Sum of Mulliken charges=   1.00000

 Dipole moment (field-independent basis, Debye):
    X=    -3.3026    Y=     1.4295    Z=     0.0640  Tot=     3.5993
 Quadrupole moment (field-independent basis, Debye-Ang):
   XX=   -26.9613   YY=   -66.4924   ZZ=   -85.7352
   XY=     2.0111   XZ=     0.0677   YZ=     0.2448

 Normal termination of Gaussian 03 at Fri Jun 12 17:46:59 2015.
