 Gaussian 03, Revision E.01,
 Gaussian 03:  EM64T-G03RevE.01 11-Sep-2007

 ----------------------------------------------------
 # b3lyp/6-31+G(d,p) int=ultrafine pop=(ReadRadii,MK)
 ----------------------------------------------------

 --------------------------------------
 Ca3PO4_167.mol2c_plusQ.z115805.zip.xyz
 --------------------------------------
 Symbolic Z-matrix:
 Charge =  1 Multiplicity = 1

                         Standard orientation:
 ---------------------------------------------------------------------
 Center     Atomic     Atomic              Coordinates (Angstroms)
 Number     Number      Type              X           Y           Z
 ---------------------------------------------------------------------
    1          8             0       -1.476054    0.095868    0.924460
    2          8             0        0.656011   -1.329712    0.919880
    3          8             0        0.824199    1.229846    0.923250
    4          8             0       -0.003502    0.002524   -1.711550
    5         15             0        0.002292   -0.002511    1.718150
    6         20             0        1.941086   -0.126850   -0.572680
    7         20             0       -1.082138   -1.616752   -0.570830
    8         20             0       -0.860928    1.746075   -0.567520
 ---------------------------------------------------------------------

 SCF Done:  E(RB+HF-LYP) =  -2675.07103742     A.U. after    8 cycles

 The electronic state is 1-A.
 Alpha  occ. eigenvalues -- -145.49652-145.49631-145.49626 -77.25053 -19.21236
 Alpha  occ. eigenvalues --  -19.21226 -19.21203 -19.15944 -15.56486 -15.56466
 Alpha  occ. eigenvalues --  -15.56462 -12.69684 -12.69664 -12.69662 -12.69661
 Alpha  occ. eigenvalues --  -12.69642 -12.69638 -12.69615 -12.69594 -12.69591
 Alpha  occ. eigenvalues --   -6.70083  -4.86431  -4.86431  -4.85895  -1.93824
 Alpha  occ. eigenvalues --   -1.93744  -1.93732  -1.22376  -1.21698  -1.21691
 Alpha  occ. eigenvalues --   -1.21307  -1.21139  -1.21067  -1.21059  -1.20648
 Alpha  occ. eigenvalues --   -1.20636  -1.06758  -1.00357  -1.00349  -0.90945
 Alpha  occ. eigenvalues --   -0.62639  -0.50526  -0.50523  -0.47959  -0.43356
 Alpha  occ. eigenvalues --   -0.43354  -0.38345  -0.38338  -0.38174  -0.36141
 Alpha  occ. eigenvalues --   -0.36139  -0.34594  -0.30857
 Alpha virt. eigenvalues --   -0.19950  -0.18030  -0.18024  -0.12558  -0.12552
 Alpha virt. eigenvalues --   -0.10894  -0.09479  -0.09476  -0.08338  -0.07772
 Alpha virt. eigenvalues --   -0.06545  -0.06115  -0.06114  -0.04764  -0.04715

 Mulliken atomic charges:
              1
     1  O   -1.031947
     2  O   -1.032263
     3  O   -1.032289
     4  O   -1.251130
     5  P    1.098029
     6  Ca   1.416658
     7  Ca   1.416379
     8  Ca   1.416563
 Sum of Mulliken charges=   1.00000

 Dipole moment (field-independent basis, Debye):
    X=    -0.0076    Y=     0.0126    Z=    -8.2358  Tot=     8.2358
 Quadrupole moment (field-independent basis, Debye-Ang):
   XX=   -40.0255   YY=   -40.0478   ZZ=   -90.0076
   XY=     0.0004   XZ=    -0.0775   YZ=     0.0575

 Normal termination of Gaussian 03 at Fri Jun 12 17:39:12 2015.
