 Gaussian 03, Revision E.01,
 Gaussian 03:  EM64T-G03RevE.01 11-Sep-2007

 ----------------------------------------------------
 # b3lyp/6-31+G(d,p) int=ultrafine pop=(ReadRadii,MK)
 ----------------------------------------------------

 ---------------------------------------
 Ca3PO4_189.mol2cc_plusQc.z51690.zip.xyz
 ---------------------------------------
 Symbolic Z-matrix:
 Charge =  1 Multiplicity = 1

                         Standard orientation:
 ---------------------------------------------------------------------
 Center     Atomic     Atomic              Coordinates (Angstroms)
 Number     Number      Type              X           Y           Z
 ---------------------------------------------------------------------
    1          8             0       -3.360509    0.666309   -0.006299
    2          8             0        0.888751    0.958781    0.015891
    3          8             0       -1.557268   -1.024710   -0.002769
    4          8             0        2.963072   -1.328188   -0.011939
    5         15             0       -3.112778   -0.852881   -0.007859
    6         20             0        0.805942   -1.422159    0.011861
    7         20             0       -1.185089    1.558940    0.004001
    8         20             0        3.140111    0.794002   -0.007919
 ---------------------------------------------------------------------

 SCF Done:  E(RB+HF-LYP) =  -2675.00689390     A.U. after   10 cycles

 The electronic state is 1-A.
 Alpha  occ. eigenvalues -- -145.52269-145.46953-145.45474 -77.31347 -19.29529
 Alpha  occ. eigenvalues --  -19.28788 -19.16993 -19.10472 -15.59178 -15.53852
 Alpha  occ. eigenvalues --  -15.52403 -12.72442 -12.72398 -12.72197 -12.67093
 Alpha  occ. eigenvalues --  -12.67008 -12.66930 -12.65672 -12.65581 -12.65446
 Alpha  occ. eigenvalues --   -6.76940  -4.93376  -4.93144  -4.92728  -1.96426
 Alpha  occ. eigenvalues --   -1.91143  -1.89818  -1.24359  -1.24349  -1.23314
 Alpha  occ. eigenvalues --   -1.19015  -1.18768  -1.18116  -1.17870  -1.17287
 Alpha  occ. eigenvalues --   -1.17061  -1.15057  -1.09402  -0.91720  -0.84445
 Alpha  occ. eigenvalues --   -0.68464  -0.57428  -0.54769  -0.54084  -0.46497
 Alpha  occ. eigenvalues --   -0.45046  -0.42666  -0.37826  -0.36769  -0.35777
 Alpha  occ. eigenvalues --   -0.29995  -0.28548  -0.28233
 Alpha virt. eigenvalues --   -0.21256  -0.20101  -0.17855  -0.15071  -0.12979
 Alpha virt. eigenvalues --   -0.11119  -0.10411  -0.10245  -0.09292  -0.08851
 Alpha virt. eigenvalues --   -0.08427  -0.07237  -0.06843  -0.06420  -0.05449

 Mulliken atomic charges:
              1
     1  O   -0.653887
     2  O   -1.321041
     3  O   -0.742102
     4  O   -1.131457
     5  P    0.676342
     6  Ca   1.326581
     7  Ca   1.498613
     8  Ca   1.346952
 Sum of Mulliken charges=   1.00000

 Dipole moment (field-independent basis, Debye):
    X=    -0.1844    Y=     8.1405    Z=     0.0402  Tot=     8.1427
 Quadrupole moment (field-independent basis, Debye-Ang):
   XX=   -60.0594   YY=   -52.2433   ZZ=   -68.9352
   XY=    23.1808   XZ=    -0.0259   YZ=    -0.3271

 Normal termination of Gaussian 03 at Fri Jun 12 17:40:31 2015.
