 Gaussian 03, Revision E.01,
 Gaussian 03:  EM64T-G03RevE.01 11-Sep-2007

 ----------------------------------------------------
 # b3lyp/6-31+G(d,p) int=ultrafine pop=(ReadRadii,MK)
 ----------------------------------------------------

 ---------------------------------------
 Ca3PO4_166.mol2ccc_plusQ.z51172.zip.xyz
 ---------------------------------------
 Symbolic Z-matrix:
 Charge =  1 Multiplicity = 1

                         Standard orientation:
 ---------------------------------------------------------------------
 Center     Atomic     Atomic              Coordinates (Angstroms)
 Number     Number      Type              X           Y           Z
 ---------------------------------------------------------------------
    1          8             0        0.587439    1.253779   -0.108449
    2          8             0        0.586460   -1.253281   -0.109109
    3          8             0        2.239310   -0.000931    1.330881
    4          8             0       -2.692260    0.000167   -0.333029
    5         15             0        0.691830    0.000069    1.034761
    6         20             0       -1.623451    1.818058   -0.076069
    7         20             0       -1.623750   -1.817982   -0.076149
    8         20             0        2.439950   -0.000020   -0.935969
 ---------------------------------------------------------------------

 SCF Done:  E(RB+HF-LYP) =  -2674.99967846     A.U. after    8 cycles

 The electronic state is 1-A.
 Alpha  occ. eigenvalues -- -145.52896-145.48521-145.48516 -77.24508 -19.21565
 Alpha  occ. eigenvalues --  -19.21551 -19.18910 -19.12192 -15.59693 -15.55424
 Alpha  occ. eigenvalues --  -15.55419 -12.72875 -12.72871 -12.72859 -12.68676
 Alpha  occ. eigenvalues --  -12.68671 -12.68607 -12.68602 -12.68483 -12.68478
 Alpha  occ. eigenvalues --   -6.69824  -4.86204  -4.86127  -4.85706  -1.96737
 Alpha  occ. eigenvalues --   -1.92689  -1.92663  -1.24714  -1.23999  -1.23963
 Alpha  occ. eigenvalues --   -1.20598  -1.20527  -1.20412  -1.20155  -1.19798
 Alpha  occ. eigenvalues --   -1.19305  -1.06954  -0.99977  -0.99930  -0.86577
 Alpha  occ. eigenvalues --   -0.61881  -0.49713  -0.49548  -0.48422  -0.42892
 Alpha  occ. eigenvalues --   -0.42359  -0.38148  -0.37916  -0.34576  -0.32844
 Alpha  occ. eigenvalues --   -0.32547  -0.30671  -0.30267
 Alpha virt. eigenvalues --   -0.20426  -0.18309  -0.17399  -0.12508  -0.11992
 Alpha virt. eigenvalues --   -0.10385  -0.10050  -0.08962  -0.08368  -0.08012
 Alpha virt. eigenvalues --   -0.07400  -0.06924  -0.06469  -0.05554  -0.05312

 Mulliken atomic charges:
              1
     1  O   -0.957485
     2  O   -0.957512
     3  O   -0.880298
     4  O   -1.183576
     5  P    0.749991
     6  Ca   1.424264
     7  Ca   1.424244
     8  Ca   1.380373
 Sum of Mulliken charges=   1.00000

 Dipole moment (field-independent basis, Debye):
    X=     1.5042    Y=     0.0007    Z=    -7.5029  Tot=     7.6522
 Quadrupole moment (field-independent basis, Debye-Ang):
   XX=   -53.1435   YY=   -32.3013   ZZ=   -70.0663
   XY=     0.0072   XZ=   -28.1184   YZ=     0.0018

 Normal termination of Gaussian 03 at Fri Jun 12 17:39:02 2015.
