 Gaussian 03, Revision E.01,
 Gaussian 03:  EM64T-G03RevE.01 11-Sep-2007

 ----------------------------------------------------
 # b3lyp/6-31+G(d,p) int=ultrafine pop=(ReadRadii,MK)
 ----------------------------------------------------

 -------------------------------------
 Ca3PO4_182.mol2c_plusQ.z51190.zip.xyz
 -------------------------------------
 Symbolic Z-matrix:
 Charge =  1 Multiplicity = 1

                         Standard orientation:
 ---------------------------------------------------------------------
 Center     Atomic     Atomic              Coordinates (Angstroms)
 Number     Number      Type              X           Y           Z
 ---------------------------------------------------------------------
    1          8             0       -1.581249    0.969430   -0.120089
    2          8             0        0.595590    1.144152    1.164841
    3          8             0        0.423903   -0.957618   -1.073999
    4          8             0        1.855472   -0.433667   -1.172319
    5         15             0       -1.003989    0.872890    1.430631
    6         20             0        0.477670    1.393382   -1.161699
    7         20             0        1.491793   -1.003077    1.028631
    8         20             0       -1.733957   -1.333890   -0.459279
 ---------------------------------------------------------------------

 SCF Done:  E(RB+HF-LYP) =  -2674.89708734     A.U. after    8 cycles

 The electronic state is 1-A.
 Alpha  occ. eigenvalues -- -145.52640-145.51624-145.51313 -77.24842 -19.26802
 Alpha  occ. eigenvalues --  -19.26196 -19.24055 -19.23905 -15.59479 -15.58478
 Alpha  occ. eigenvalues --  -15.58133 -12.72688 -12.72651 -12.72613 -12.71691
 Alpha  occ. eigenvalues --  -12.71650 -12.71616 -12.71340 -12.71331 -12.71252
 Alpha  occ. eigenvalues --   -6.70518  -4.86876  -4.86677  -4.86380  -1.96531
 Alpha  occ. eigenvalues --   -1.95636  -1.95359  -1.24684  -1.23981  -1.23934
 Alpha  occ. eigenvalues --   -1.23739  -1.23296  -1.23090  -1.22866  -1.22799
 Alpha  occ. eigenvalues --   -1.22510  -1.10504  -1.08237  -1.03346  -0.90070
 Alpha  occ. eigenvalues --   -0.64741  -0.52149  -0.51972  -0.50441  -0.49843
 Alpha  occ. eigenvalues --   -0.48953  -0.46446  -0.43439  -0.40668  -0.38970
 Alpha  occ. eigenvalues --   -0.36591  -0.34912  -0.26282
 Alpha virt. eigenvalues --   -0.20743  -0.19893  -0.18857  -0.13941  -0.13329
 Alpha virt. eigenvalues --   -0.11713  -0.11217  -0.10572  -0.09643  -0.09402
 Alpha virt. eigenvalues --   -0.08753  -0.07314  -0.06832  -0.06427  -0.06002

 Mulliken atomic charges:
              1
     1  O   -0.702653
     2  O   -0.723035
     3  O   -0.627601
     4  O   -0.627297
     5  P   -0.087659
     6  Ca   1.514200
     7  Ca   1.284950
     8  Ca   0.969094
 Sum of Mulliken charges=   1.00000

 Dipole moment (field-independent basis, Debye):
    X=     1.3376    Y=    -1.5887    Z=    -2.9593  Tot=     3.6154
 Quadrupole moment (field-independent basis, Debye-Ang):
   XX=   -59.4548   YY=   -58.2009   ZZ=   -69.9015
   XY=    10.3850   XZ=    18.1141   YZ=   -19.1990

 Normal termination of Gaussian 03 at Fri Jun 12 17:40:17 2015.
