 Gaussian 03, Revision E.01,
 Gaussian 03:  EM64T-G03RevE.01 11-Sep-2007

 ----------------------------------------------------
 # b3lyp/6-31+G(d,p) int=ultrafine pop=(ReadRadii,MK)
 ----------------------------------------------------

 ---------------------------------------
 Ca3PO4_163.mol2cc_plusQc.z51689.zip.xyz
 ---------------------------------------
 Symbolic Z-matrix:
 Charge =  1 Multiplicity = 1

                         Standard orientation:
 ---------------------------------------------------------------------
 Center     Atomic     Atomic              Coordinates (Angstroms)
 Number     Number      Type              X           Y           Z
 ---------------------------------------------------------------------
    1          8             0       -2.945941    0.670488    0.006420
    2          8             0       -1.669409   -1.504361   -0.013060
    3          8             0        0.831349    0.945321   -0.001650
    4          8             0        2.838661   -1.416228    0.003580
    5         15             0       -3.073590   -0.876882    0.012310
    6         20             0        3.086129    0.689383    0.006750
    7         20             0        0.671051   -1.457539   -0.007040
    8         20             0       -1.073852    1.947730   -0.007060
 ---------------------------------------------------------------------

 SCF Done:  E(RB+HF-LYP) =  -2675.00577577     A.U. after   10 cycles

 The electronic state is 1-A.
 Alpha  occ. eigenvalues -- -145.53285-145.47078-145.44480 -77.29397 -19.27577
 Alpha  occ. eigenvalues --  -19.27192 -19.17720 -19.10347 -15.60177 -15.53977
 Alpha  occ. eigenvalues --  -15.51438 -12.73434 -12.73381 -12.73220 -12.67217
 Alpha  occ. eigenvalues --  -12.67135 -12.67056 -12.64714 -12.64623 -12.64469
 Alpha  occ. eigenvalues --   -6.74946  -4.91386  -4.91162  -4.90725  -1.97376
 Alpha  occ. eigenvalues --   -1.91273  -1.88890  -1.25229  -1.25077  -1.24247
 Alpha  occ. eigenvalues --   -1.19139  -1.18813  -1.18231  -1.16995  -1.16384
 Alpha  occ. eigenvalues --   -1.16273  -1.13239  -1.07844  -0.92336  -0.84316
 Alpha  occ. eigenvalues --   -0.66976  -0.56443  -0.52393  -0.52181  -0.45140
 Alpha  occ. eigenvalues --   -0.43246  -0.40548  -0.38460  -0.37486  -0.36323
 Alpha  occ. eigenvalues --   -0.29849  -0.28440  -0.28143
 Alpha virt. eigenvalues --   -0.21384  -0.19371  -0.18292  -0.14049  -0.13464
 Alpha virt. eigenvalues --   -0.11742  -0.10627  -0.10448  -0.08683  -0.08515
 Alpha virt. eigenvalues --   -0.07774  -0.07166  -0.06433  -0.06124  -0.05565

 Mulliken atomic charges:
              1
     1  O   -0.720483
     2  O   -0.683481
     3  O   -1.345819
     4  O   -1.119546
     5  P    0.671431
     6  Ca   1.326325
     7  Ca   1.347122
     8  Ca   1.524450
 Sum of Mulliken charges=   1.00000

 Dipole moment (field-independent basis, Debye):
    X=     0.3942    Y=    11.4506    Z=    -0.0308  Tot=    11.4574
 Quadrupole moment (field-independent basis, Debye-Ang):
   XX=   -58.9297   YY=   -46.9674   ZZ=   -69.1140
   XY=    17.4838   XZ=     0.1130   YZ=    -0.0318

 Normal termination of Gaussian 03 at Fri Jun 12 17:39:13 2015.
