 Gaussian 03, Revision E.01,
 Gaussian 03:  EM64T-G03RevE.01 11-Sep-2007

 ----------------------------------------------------
 # b3lyp/6-31+G(d,p) int=ultrafine pop=(ReadRadii,MK)
 ----------------------------------------------------

 ------------------------------------
 Ca3PO4_74.mol2c_plusQ.z51490.zip.xyz
 ------------------------------------
 Symbolic Z-matrix:
 Charge =  1 Multiplicity = 1

                         Standard orientation:
 ---------------------------------------------------------------------
 Center     Atomic     Atomic              Coordinates (Angstroms)
 Number     Number      Type              X           Y           Z
 ---------------------------------------------------------------------
    1          8             0       -2.087597   -0.007111   -0.515260
    2          8             0       -1.072485   -0.318036   -1.549910
    3          8             0        1.300167    1.244466   -0.123040
    4          8             0       -0.230160   -1.426621   -1.065380
    5         15             0        1.069480    0.658255    1.575690
    6         20             0        1.979727   -0.776040   -0.691680
    7         20             0       -1.143380   -1.398516    1.093270
    8         20             0       -0.802427    1.883786   -0.281920
 ---------------------------------------------------------------------

 SCF Done:  E(RB+HF-LYP) =  -2674.74522810     A.U. after    9 cycles

 The electronic state is 1-A.
 Alpha  occ. eigenvalues -- -145.52280-145.51807-145.50793 -77.15434 -19.36554
 Alpha  occ. eigenvalues --  -19.27758 -19.27498 -19.20708 -15.59130 -15.58637
 Alpha  occ. eigenvalues --  -15.57707 -12.72347 -12.72297 -12.72265 -12.71864
 Alpha  occ. eigenvalues --  -12.71842 -12.71736 -12.70897 -12.70888 -12.70818
 Alpha  occ. eigenvalues --   -6.61989  -4.78480  -4.77917  -4.77798  -1.96272
 Alpha  occ. eigenvalues --   -1.95781  -1.94934  -1.25200  -1.23852  -1.23811
 Alpha  occ. eigenvalues --   -1.23572  -1.23374  -1.23049  -1.22598  -1.22442
 Alpha  occ. eigenvalues --   -1.22112  -1.19855  -1.03839  -0.99571  -0.87967
 Alpha  occ. eigenvalues --   -0.61283  -0.58800  -0.56124  -0.54159  -0.43915
 Alpha  occ. eigenvalues --   -0.43140  -0.42280  -0.41885  -0.41156  -0.40589
 Alpha  occ. eigenvalues --   -0.34722  -0.28066  -0.26904
 Alpha virt. eigenvalues --   -0.20681  -0.18998  -0.18781  -0.14953  -0.13865
 Alpha virt. eigenvalues --   -0.12271  -0.11097  -0.10286  -0.09812  -0.09300
 Alpha virt. eigenvalues --   -0.09014  -0.07346  -0.07014  -0.06661  -0.05933

 Mulliken atomic charges:
              1
     1  O   -0.652684
     2  O    0.030836
     3  O   -0.759053
     4  O   -0.640117
     5  P   -0.522872
     6  Ca   1.247800
     7  Ca   0.972810
     8  Ca   1.323281
 Sum of Mulliken charges=   1.00000

 Dipole moment (field-independent basis, Debye):
    X=     0.2132    Y=    -0.9353    Z=    -2.0133  Tot=     2.2301
 Quadrupole moment (field-independent basis, Debye-Ang):
   XX=   -57.1540   YY=   -46.2011   ZZ=   -78.2907
   XY=   -18.3887   XZ=   -25.3127   YZ=   -15.3606

 Normal termination of Gaussian 03 at Fri Jun 12 17:45:30 2015.
