 Gaussian 03, Revision E.01,
 Gaussian 03:  EM64T-G03RevE.01 11-Sep-2007

 ----------------------------------------------------
 # b3lyp/6-31+G(d,p) int=ultrafine pop=(ReadRadii,MK)
 ----------------------------------------------------

 ----------------------------------
 Ca3PO4_2.mol2_plusQ.z51441.zip.xyz
 ----------------------------------
 Symbolic Z-matrix:
 Charge =  1 Multiplicity = 1

                         Standard orientation:
 ---------------------------------------------------------------------
 Center     Atomic     Atomic              Coordinates (Angstroms)
 Number     Number      Type              X           Y           Z
 ---------------------------------------------------------------------
    1          8             0        1.937119   -0.276819   -0.434469
    2          8             0       -2.438762    0.790249    0.621761
    3          8             0       -2.016981   -0.573991    1.064701
    4          8             0       -2.302762    0.781629   -0.866819
    5         15             0        2.582438    1.292082    0.001891
    6         20             0        4.036579   -1.040948   -0.003769
    7         20             0       -0.133742    0.554530    0.111701
    8         20             0       -3.911111   -0.771072   -0.263419
 ---------------------------------------------------------------------

 SCF Done:  E(RB+HF-LYP) =  -2674.70661277     A.U. after   12 cycles

 The electronic state is 1-A.
 Alpha  occ. eigenvalues -- -145.54806-145.52409-145.47420 -77.16709 -19.38032
 Alpha  occ. eigenvalues --  -19.28598 -19.28300 -19.22283 -15.61660 -15.59349
 Alpha  occ. eigenvalues --  -15.54295 -12.74889 -12.74833 -12.74781 -12.72567
 Alpha  occ. eigenvalues --  -12.72518 -12.72447 -12.67534 -12.67507 -12.67379
 Alpha  occ. eigenvalues --   -6.63297  -4.79762  -4.79460  -4.78904  -1.98627
 Alpha  occ. eigenvalues --   -1.96369  -1.91544  -1.28344  -1.26172  -1.25891
 Alpha  occ. eigenvalues --   -1.23947  -1.23648  -1.23605  -1.22683  -1.19286
 Alpha  occ. eigenvalues --   -1.19164  -1.17452  -1.04012  -1.01486  -0.89083
 Alpha  occ. eigenvalues --   -0.61535  -0.58169  -0.57257  -0.56364  -0.45164
 Alpha  occ. eigenvalues --   -0.44348  -0.42749  -0.42229  -0.42006  -0.39199
 Alpha  occ. eigenvalues --   -0.37401  -0.28430  -0.24123
 Alpha virt. eigenvalues --   -0.22674  -0.20939  -0.14887  -0.13424  -0.13253
 Alpha virt. eigenvalues --   -0.12737  -0.12460  -0.12145  -0.10153  -0.09534
 Alpha virt. eigenvalues --   -0.09063  -0.07796  -0.07453  -0.06667  -0.06550

 Mulliken atomic charges:
              1
     1  O   -0.694466
     2  O   -0.026982
     3  O   -0.625356
     4  O   -0.621414
     5  P   -0.508408
     6  Ca   1.030634
     7  Ca   1.268027
     8  Ca   1.177965
 Sum of Mulliken charges=   1.00000

 Dipole moment (field-independent basis, Debye):
    X=    -1.0235    Y=    -7.5988    Z=    -1.3935  Tot=     7.7931
 Quadrupole moment (field-independent basis, Debye-Ang):
   XX=    16.2224   YY=   -75.9681   ZZ=   -83.7342
   XY=    -8.3585   XZ=     3.4760   YZ=     3.4679

 Normal termination of Gaussian 03 at Fri Jun 12 17:43:05 2015.
