 Gaussian 03, Revision E.01,
 Gaussian 03:  EM64T-G03RevE.01 11-Sep-2007

 ----------------------------------------------------
 # b3lyp/6-31+G(d,p) int=ultrafine pop=(ReadRadii,MK)
 ----------------------------------------------------

 -------------------------------------
 Ca3PO4_169.mol2c_plusQ.z51175.zip.xyz
 -------------------------------------
 Symbolic Z-matrix:
 Charge =  1 Multiplicity = 1

                         Standard orientation:
 ---------------------------------------------------------------------
 Center     Atomic     Atomic              Coordinates (Angstroms)
 Number     Number      Type              X           Y           Z
 ---------------------------------------------------------------------
    1          8             0        0.376220    0.709959   -0.003101
    2          8             0        0.419520   -0.823281   -0.002731
    3          8             0       -3.777450    0.976079    0.021569
    4          8             0        3.667030    0.058580    0.002359
    5         15             0       -4.590610   -0.381911   -0.006341
    6         20             0        2.405060    1.756720   -0.002671
    7         20             0        2.519200   -1.718890    0.003499
    8         20             0       -1.755430   -0.119931   -0.003311
 ---------------------------------------------------------------------

 SCF Done:  E(RB+HF-LYP) =  -2674.81029265     A.U. after    8 cycles

 The electronic state is 1-A.
 Alpha  occ. eigenvalues -- -145.50940-145.50935-145.47564 -77.20442 -19.26811
 Alpha  occ. eigenvalues --  -19.26788 -19.24400 -19.14106 -15.57806 -15.57800
 Alpha  occ. eigenvalues --  -15.54510 -12.71050 -12.71044 -12.70974 -12.70970
 Alpha  occ. eigenvalues --  -12.70892 -12.70885 -12.67800 -12.67685 -12.67556
 Alpha  occ. eigenvalues --   -6.66849  -4.83545  -4.83013  -4.82243  -1.95015
 Alpha  occ. eigenvalues --   -1.94975  -1.91864  -1.22816  -1.22813  -1.22776
 Alpha  occ. eigenvalues --   -1.22286  -1.22239  -1.21669  -1.19978  -1.19940
 Alpha  occ. eigenvalues --   -1.19394  -1.10093  -1.05806  -0.90224  -0.88439
 Alpha  occ. eigenvalues --   -0.61842  -0.52256  -0.49409  -0.47348  -0.45664
 Alpha  occ. eigenvalues --   -0.44824  -0.43841  -0.37709  -0.34741  -0.34344
 Alpha  occ. eigenvalues --   -0.32626  -0.32520  -0.25523
 Alpha virt. eigenvalues --   -0.20661  -0.19913  -0.19685  -0.15032  -0.13773
 Alpha virt. eigenvalues --   -0.12807  -0.11454  -0.10831  -0.09661  -0.09604
 Alpha virt. eigenvalues --   -0.08490  -0.07749  -0.06845  -0.06708  -0.05623

 Mulliken atomic charges:
              1
     1  O   -0.687636
     2  O   -0.667683
     3  O   -0.481542
     4  O   -1.146010
     5  P   -0.069865
     6  Ca   1.399246
     7  Ca   1.399857
     8  Ca   1.253634
 Sum of Mulliken charges=   1.00000

 Dipole moment (field-independent basis, Debye):
    X=     8.8456    Y=    -1.1917    Z=    -0.0305  Tot=     8.9255
 Quadrupole moment (field-independent basis, Debye-Ang):
   XX=   -86.6707   YY=   -32.6499   ZZ=   -69.3065
   XY=     4.2579   XZ=     0.1249   YZ=    -0.2373

 Normal termination of Gaussian 03 at Fri Jun 12 17:38:59 2015.
