 Gaussian 03, Revision E.01,
 Gaussian 03:  EM64T-G03RevE.01 11-Sep-2007

 ----------------------------------------------------
 # b3lyp/6-31+G(d,p) int=ultrafine pop=(ReadRadii,MK)
 ----------------------------------------------------

 -----------------------------------
 Ca3PO4_26.mol2_plusQ.z51437.zip.xyz
 -----------------------------------
 Symbolic Z-matrix:
 Charge =  1 Multiplicity = 1

                         Standard orientation:
 ---------------------------------------------------------------------
 Center     Atomic     Atomic              Coordinates (Angstroms)
 Number     Number      Type              X           Y           Z
 ---------------------------------------------------------------------
    1          8             0        1.374703    0.551715    0.921870
    2          8             0       -0.210298   -1.465023    0.922940
    3          8             0       -1.163929    0.916131    0.921960
    4          8             0       -0.000219   -0.001395   -1.711850
    5         15             0        0.000362    0.002064    1.718040
    6         20             0       -1.806546   -0.724308   -0.569220
    7         20             0        1.529807   -1.203225   -0.569280
    8         20             0        0.276365    1.925413   -0.572000
 ---------------------------------------------------------------------

 SCF Done:  E(RB+HF-LYP) =  -2675.07103777     A.U. after    8 cycles

 The electronic state is 1-A.
 Alpha  occ. eigenvalues -- -145.49637-145.49632-145.49631 -77.25055 -19.21252
 Alpha  occ. eigenvalues --  -19.21251 -19.21160 -19.15932 -15.56471 -15.56467
 Alpha  occ. eigenvalues --  -15.56466 -12.69667 -12.69666 -12.69666 -12.69645
 Alpha  occ. eigenvalues --  -12.69644 -12.69642 -12.69597 -12.69597 -12.69596
 Alpha  occ. eigenvalues --   -6.70084  -4.86433  -4.86433  -4.85896  -1.93820
 Alpha  occ. eigenvalues --   -1.93735  -1.93735  -1.22373  -1.21692  -1.21691
 Alpha  occ. eigenvalues --   -1.21302  -1.21136  -1.21062  -1.21060  -1.20638
 Alpha  occ. eigenvalues --   -1.20638  -1.06753  -1.00374  -1.00327  -0.90930
 Alpha  occ. eigenvalues --   -0.62641  -0.50529  -0.50517  -0.47956  -0.43355
 Alpha  occ. eigenvalues --   -0.43352  -0.38353  -0.38326  -0.38175  -0.36129
 Alpha  occ. eigenvalues --   -0.36125  -0.34583  -0.30858
 Alpha virt. eigenvalues --   -0.19948  -0.18025  -0.18024  -0.12553  -0.12551
 Alpha virt. eigenvalues --   -0.10892  -0.09477  -0.09476  -0.08337  -0.07770
 Alpha virt. eigenvalues --   -0.06545  -0.06113  -0.06113  -0.04764  -0.04716

 Mulliken atomic charges:
              1
     1  O   -1.032358
     2  O   -1.031883
     3  O   -1.032373
     4  O   -1.250921
     5  P    1.097872
     6  Ca   1.416631
     7  Ca   1.416601
     8  Ca   1.416431
 Sum of Mulliken charges=   1.00000

 Dipole moment (field-independent basis, Debye):
    X=    -0.0024    Y=    -0.0134    Z=    -8.2284  Tot=     8.2284
 Quadrupole moment (field-independent basis, Debye-Ang):
   XX=   -40.0297   YY=   -40.0430   ZZ=   -90.0153
   XY=    -0.0019   XZ=    -0.0071   YZ=    -0.0455

 Normal termination of Gaussian 03 at Fri Jun 12 17:42:43 2015.
