 Gaussian 03, Revision E.01,
 Gaussian 03:  EM64T-G03RevE.01 11-Sep-2007

 ----------------------------------------------------
 # b3lyp/6-31+G(d,p) int=ultrafine pop=(ReadRadii,MK)
 ----------------------------------------------------

 --------------------------------------
 Ca3PO4_209.mol2c_plusQc.z51694.zip.xyz
 --------------------------------------
 Symbolic Z-matrix:
 Charge =  1 Multiplicity = 1

                         Standard orientation:
 ---------------------------------------------------------------------
 Center     Atomic     Atomic              Coordinates (Angstroms)
 Number     Number      Type              X           Y           Z
 ---------------------------------------------------------------------
    1          8             0       -1.556620   -1.024950   -0.001030
    2          8             0        2.962880   -1.328041   -0.004440
    3          8             0       -3.360280    0.665790   -0.002310
    4          8             0        0.888340    0.958049    0.005620
    5         15             0       -3.112210   -0.853210   -0.003010
    6         20             0        3.139750    0.794179   -0.002940
    7         20             0       -1.184950    1.560110    0.001580
    8         20             0        0.805630   -1.422721    0.004480
 ---------------------------------------------------------------------

 SCF Done:  E(RB+HF-LYP) =  -2675.00690754     A.U. after   10 cycles

 The electronic state is 1-A.
 Alpha  occ. eigenvalues -- -145.52323-145.46906-145.45471 -77.31230 -19.29501
 Alpha  occ. eigenvalues --  -19.28799 -19.16942 -19.10397 -15.59227 -15.53806
 Alpha  occ. eigenvalues --  -15.52397 -12.72492 -12.72448 -12.72248 -12.67048
 Alpha  occ. eigenvalues --  -12.66963 -12.66885 -12.65667 -12.65576 -12.65441
 Alpha  occ. eigenvalues --   -6.76845  -4.93279  -4.93047  -4.92631  -1.96467
 Alpha  occ. eigenvalues --   -1.91103  -1.89809  -1.24398  -1.24387  -1.23350
 Alpha  occ. eigenvalues --   -1.18976  -1.18730  -1.18076  -1.17861  -1.17277
 Alpha  occ. eigenvalues --   -1.17047  -1.15047  -1.09396  -0.91688  -0.84372
 Alpha  occ. eigenvalues --   -0.68448  -0.57424  -0.54758  -0.54074  -0.46498
 Alpha  occ. eigenvalues --   -0.45047  -0.42639  -0.37796  -0.36742  -0.35751
 Alpha  occ. eigenvalues --   -0.29931  -0.28483  -0.28165
 Alpha virt. eigenvalues --   -0.21229  -0.20113  -0.17847  -0.15063  -0.12987
 Alpha virt. eigenvalues --   -0.11123  -0.10413  -0.10236  -0.09289  -0.08835
 Alpha virt. eigenvalues --   -0.08417  -0.07230  -0.06842  -0.06416  -0.05451

 Mulliken atomic charges:
              1
     1  O   -0.742475
     2  O   -1.129218
     3  O   -0.654977
     4  O   -1.320166
     5  P    0.678072
     6  Ca   1.345814
     7  Ca   1.497588
     8  Ca   1.325361
 Sum of Mulliken charges=   1.00000

 Dipole moment (field-independent basis, Debye):
    X=    -0.1754    Y=     8.1226    Z=     0.0169  Tot=     8.1245
 Quadrupole moment (field-independent basis, Debye-Ang):
   XX=   -60.0495   YY=   -52.2323   ZZ=   -68.9683
   XY=    23.1606   XZ=    -0.0087   YZ=    -0.1191

 Normal termination of Gaussian 03 at Fri Jun 12 17:41:50 2015.
