 Gaussian 03, Revision E.01,
 Gaussian 03:  EM64T-G03RevE.01 11-Sep-2007

 ----------------------------------------------------
 # b3lyp/6-31+G(d,p) int=ultrafine pop=(ReadRadii,MK)
 ----------------------------------------------------

 ------------------------------------
 Ca3PO4_34.mol2c_plusQ.z51446.zip.xyz
 ------------------------------------
 Symbolic Z-matrix:
 Charge =  1 Multiplicity = 1

                         Standard orientation:
 ---------------------------------------------------------------------
 Center     Atomic     Atomic              Coordinates (Angstroms)
 Number     Number      Type              X           Y           Z
 ---------------------------------------------------------------------
    1          8             0        1.441285    0.339318    0.922640
    2          8             0       -0.426910   -1.417823    0.922400
    3          8             0       -1.014547    1.078761    0.922120
    4          8             0       -0.000010   -0.000141   -1.712180
    5         15             0       -0.000221    0.000128    1.718200
    6         20             0       -1.894109   -0.445869   -0.570260
    7         20             0        0.561062    1.863138   -0.570310
    8         20             0        1.333286   -1.417411   -0.570070
 ---------------------------------------------------------------------

 SCF Done:  E(RB+HF-LYP) =  -2675.07105794     A.U. after    8 cycles

 The electronic state is 1-A.
 Alpha  occ. eigenvalues -- -145.49642-145.49636-145.49634 -77.25059 -19.21227
 Alpha  occ. eigenvalues --  -19.21223 -19.21223 -19.15944 -15.56475 -15.56471
 Alpha  occ. eigenvalues --  -15.56470 -12.69673 -12.69670 -12.69669 -12.69650
 Alpha  occ. eigenvalues --  -12.69648 -12.69646 -12.69603 -12.69600 -12.69600
 Alpha  occ. eigenvalues --   -6.70088  -4.86437  -4.86437  -4.85900  -1.93824
 Alpha  occ. eigenvalues --   -1.93740  -1.93738  -1.22378  -1.21696  -1.21695
 Alpha  occ. eigenvalues --   -1.21307  -1.21140  -1.21065  -1.21064  -1.20643
 Alpha  occ. eigenvalues --   -1.20642  -1.06759  -1.00356  -1.00355  -0.90940
 Alpha  occ. eigenvalues --   -0.62644  -0.50528  -0.50528  -0.47961  -0.43358
 Alpha  occ. eigenvalues --   -0.43358  -0.38343  -0.38343  -0.38178  -0.36136
 Alpha  occ. eigenvalues --   -0.36135  -0.34592  -0.30862
 Alpha virt. eigenvalues --   -0.19950  -0.18027  -0.18026  -0.12555  -0.12554
 Alpha virt. eigenvalues --   -0.10894  -0.09478  -0.09478  -0.08339  -0.07772
 Alpha virt. eigenvalues --   -0.06545  -0.06114  -0.06114  -0.04766  -0.04716

 Mulliken atomic charges:
              1
     1  O   -1.032337
     2  O   -1.032275
     3  O   -1.032287
     4  O   -1.251114
     5  P    1.098057
     6  Ca   1.416659
     7  Ca   1.416630
     8  Ca   1.416667
 Sum of Mulliken charges=   1.00000

 Dipole moment (field-independent basis, Debye):
    X=     0.0013    Y=    -0.0012    Z=    -8.2289  Tot=     8.2289
 Quadrupole moment (field-independent basis, Debye-Ang):
   XX=   -40.0270   YY=   -40.0345   ZZ=   -90.0184
   XY=     0.0005   XZ=    -0.0007   YZ=    -0.0036

 Normal termination of Gaussian 03 at Fri Jun 12 17:43:09 2015.
