 Gaussian 03, Revision E.01,
 Gaussian 03:  EM64T-G03RevE.01 11-Sep-2007

 ----------------------------------------------------
 # b3lyp/6-31+G(d,p) int=ultrafine pop=(ReadRadii,MK)
 ----------------------------------------------------

 ------------------------------------
 Ca3PO4_33.mol2c_plusQ.z51445.zip.xyz
 ------------------------------------
 Symbolic Z-matrix:
 Charge =  1 Multiplicity = 1

                         Standard orientation:
 ---------------------------------------------------------------------
 Center     Atomic     Atomic              Coordinates (Angstroms)
 Number     Number      Type              X           Y           Z
 ---------------------------------------------------------------------
    1          8             0       -2.239329   -0.000196    1.331141
    2          8             0       -0.587093    1.253739   -0.108649
    3          8             0        2.692751   -0.000130   -0.333109
    4          8             0       -0.586965   -1.253101   -0.109509
    5         15             0       -0.691999   -0.000241    1.034771
    6         20             0        1.623725    1.817856   -0.076029
    7         20             0       -2.440009    0.000093   -0.935989
    8         20             0        1.623537   -1.817894   -0.076009
 ---------------------------------------------------------------------

 SCF Done:  E(RB+HF-LYP) =  -2674.99967943     A.U. after    8 cycles

 The electronic state is 1-A.
 Alpha  occ. eigenvalues -- -145.52898-145.48518-145.48518 -77.24513 -19.21564
 Alpha  occ. eigenvalues --  -19.21550 -19.18917 -19.12189 -15.59695 -15.55421
 Alpha  occ. eigenvalues --  -15.55421 -12.72877 -12.72872 -12.72861 -12.68674
 Alpha  occ. eigenvalues --  -12.68673 -12.68605 -12.68604 -12.68481 -12.68479
 Alpha  occ. eigenvalues --   -6.69829  -4.86209  -4.86132  -4.85711  -1.96738
 Alpha  occ. eigenvalues --   -1.92688  -1.92662  -1.24715  -1.24000  -1.23964
 Alpha  occ. eigenvalues --   -1.20597  -1.20526  -1.20411  -1.20155  -1.19797
 Alpha  occ. eigenvalues --   -1.19304  -1.06955  -0.99982  -0.99926  -0.86572
 Alpha  occ. eigenvalues --   -0.61882  -0.49711  -0.49549  -0.48424  -0.42891
 Alpha  occ. eigenvalues --   -0.42360  -0.38147  -0.37921  -0.34578  -0.32845
 Alpha  occ. eigenvalues --   -0.32542  -0.30666  -0.30265
 Alpha virt. eigenvalues --   -0.20426  -0.18308  -0.17398  -0.12507  -0.11992
 Alpha virt. eigenvalues --   -0.10385  -0.10050  -0.08961  -0.08369  -0.08012
 Alpha virt. eigenvalues --   -0.07399  -0.06924  -0.06469  -0.05554  -0.05312

 Mulliken atomic charges:
              1
     1  O   -0.880141
     2  O   -0.957454
     3  O   -1.183443
     4  O   -0.957396
     5  P    0.749582
     6  Ca   1.424220
     7  Ca   1.380482
     8  Ca   1.424149
 Sum of Mulliken charges=   1.00000

 Dipole moment (field-independent basis, Debye):
    X=    -1.5079    Y=    -0.0004    Z=    -7.5003  Tot=     7.6503
 Quadrupole moment (field-independent basis, Debye-Ang):
   XX=   -53.1497   YY=   -32.3109   ZZ=   -70.0685
   XY=     0.0042   XZ=    28.1214   YZ=    -0.0032

 Normal termination of Gaussian 03 at Fri Jun 12 17:43:02 2015.
