 Gaussian 03, Revision E.01,
 Gaussian 03:  EM64T-G03RevE.01 11-Sep-2007

 ----------------------------------------------------
 # b3lyp/6-31+G(d,p) int=ultrafine pop=(ReadRadii,MK)
 ----------------------------------------------------

 -------------------------------------
 Ca3PO4_133.mol2c_plusQ.z51136.zip.xyz
 -------------------------------------
 Symbolic Z-matrix:
 Charge =  1 Multiplicity = 1

                         Standard orientation:
 ---------------------------------------------------------------------
 Center     Atomic     Atomic              Coordinates (Angstroms)
 Number     Number      Type              X           Y           Z
 ---------------------------------------------------------------------
    1          8             0        0.910728    1.167429    0.922540
    2          8             0        0.555727   -1.372785    0.921890
    3          8             0       -1.466416    0.204943    0.922710
    4          8             0        0.000110    0.000119   -1.712240
    5         15             0        0.000199   -0.000441    1.718210
    6         20             0       -0.730375    1.803644   -0.569980
    7         20             0        1.927194   -0.269204   -0.570260
    8         20             0       -1.197027   -1.533992   -0.570380
 ---------------------------------------------------------------------

 SCF Done:  E(RB+HF-LYP) =  -2675.07103812     A.U. after    8 cycles

 The electronic state is 1-A.
 Alpha  occ. eigenvalues -- -145.49641-145.49636-145.49634 -77.25059 -19.21228
 Alpha  occ. eigenvalues --  -19.21223 -19.21221 -19.15942 -15.56475 -15.56471
 Alpha  occ. eigenvalues --  -15.56470 -12.69672 -12.69670 -12.69669 -12.69650
 Alpha  occ. eigenvalues --  -12.69648 -12.69646 -12.69602 -12.69600 -12.69599
 Alpha  occ. eigenvalues --   -6.70088  -4.86437  -4.86437  -4.85901  -1.93824
 Alpha  occ. eigenvalues --   -1.93739  -1.93738  -1.22377  -1.21696  -1.21695
 Alpha  occ. eigenvalues --   -1.21306  -1.21139  -1.21065  -1.21064  -1.20643
 Alpha  occ. eigenvalues --   -1.20642  -1.06759  -1.00356  -1.00353  -0.90938
 Alpha  occ. eigenvalues --   -0.62644  -0.50528  -0.50527  -0.47961  -0.43358
 Alpha  occ. eigenvalues --   -0.43357  -0.38343  -0.38342  -0.38178  -0.36134
 Alpha  occ. eigenvalues --   -0.36133  -0.34591  -0.30862
 Alpha virt. eigenvalues --   -0.19950  -0.18026  -0.18026  -0.12555  -0.12553
 Alpha virt. eigenvalues --   -0.10893  -0.09478  -0.09477  -0.08338  -0.07772
 Alpha virt. eigenvalues --   -0.06545  -0.06114  -0.06113  -0.04765  -0.04717

 Mulliken atomic charges:
              1
     1  O   -1.032292
     2  O   -1.032237
     3  O   -1.032347
     4  O   -1.251053
     5  P    1.098005
     6  Ca   1.416636
     7  Ca   1.416685
     8  Ca   1.416603
 Sum of Mulliken charges=   1.00000

 Dipole moment (field-independent basis, Debye):
    X=    -0.0008    Y=     0.0026    Z=    -8.2285  Tot=     8.2285
 Quadrupole moment (field-independent basis, Debye-Ang):
   XX=   -40.0248   YY=   -40.0393   ZZ=   -90.0197
   XY=     0.0012   XZ=     0.0029   YZ=     0.0032

 Normal termination of Gaussian 03 at Fri Jun 12 17:37:30 2015.
