 Gaussian 03, Revision E.01,
 Gaussian 03:  EM64T-G03RevE.01 11-Sep-2007

 ----------------------------------------------------
 # b3lyp/6-31+G(d,p) int=ultrafine pop=(ReadRadii,MK)
 ----------------------------------------------------

 --------------------------------------
 Ca3PO4_201.mol2c_plusQc.z51693.zip.xyz
 --------------------------------------
 Symbolic Z-matrix:
 Charge =  1 Multiplicity = 1

                         Standard orientation:
 ---------------------------------------------------------------------
 Center     Atomic     Atomic              Coordinates (Angstroms)
 Number     Number      Type              X           Y           Z
 ---------------------------------------------------------------------
    1          8             0       -0.888021    0.958249   -0.013261
    2          8             0        1.556861   -1.029519   -0.010961
    3          8             0        3.356610    0.665303    0.019689
    4          8             0       -2.961589   -1.329173    0.011649
    5         15             0        3.111341   -0.854267    0.013889
    6         20             0       -0.804219   -1.421711   -0.013691
    7         20             0        1.184529    1.563761   -0.012161
    8         20             0       -3.139361    0.792707    0.012589
 ---------------------------------------------------------------------

 SCF Done:  E(RB+HF-LYP) =  -2675.00687323     A.U. after   10 cycles

 The electronic state is 1-A.
 Alpha  occ. eigenvalues -- -145.52296-145.46966-145.45435 -77.31377 -19.29508
 Alpha  occ. eigenvalues --  -19.28762 -19.17028 -19.10508 -15.59203 -15.53864
 Alpha  occ. eigenvalues --  -15.52366 -12.72468 -12.72424 -12.72223 -12.67106
 Alpha  occ. eigenvalues --  -12.67021 -12.66943 -12.65636 -12.65545 -12.65409
 Alpha  occ. eigenvalues --   -6.76959  -4.93395  -4.93163  -4.92747  -1.96450
 Alpha  occ. eigenvalues --   -1.91155  -1.89788  -1.24381  -1.24366  -1.23334
 Alpha  occ. eigenvalues --   -1.19026  -1.18777  -1.18127  -1.17842  -1.17265
 Alpha  occ. eigenvalues --   -1.17046  -1.15040  -1.09385  -0.91748  -0.84472
 Alpha  occ. eigenvalues --   -0.68449  -0.57418  -0.54747  -0.54067  -0.46480
 Alpha  occ. eigenvalues --   -0.45022  -0.42652  -0.37853  -0.36792  -0.35802
 Alpha  occ. eigenvalues --   -0.30016  -0.28571  -0.28258
 Alpha virt. eigenvalues --   -0.21241  -0.20120  -0.17865  -0.15054  -0.12986
 Alpha virt. eigenvalues --   -0.11119  -0.10418  -0.10252  -0.09284  -0.08842
 Alpha virt. eigenvalues --   -0.08424  -0.07232  -0.06845  -0.06428  -0.05450

 Mulliken atomic charges:
              1
     1  O   -1.321740
     2  O   -0.740468
     3  O   -0.654114
     4  O   -1.132502
     5  P    0.675003
     6  Ca   1.326920
     7  Ca   1.499627
     8  Ca   1.347275
 Sum of Mulliken charges=   1.00000

 Dipole moment (field-independent basis, Debye):
    X=     0.1927    Y=     8.2032    Z=    -0.0794  Tot=     8.2059
 Quadrupole moment (field-independent basis, Debye-Ang):
   XX=   -60.0766   YY=   -52.1644   ZZ=   -68.9193
   XY=   -23.1138   XZ=    -0.2403   YZ=     0.1660

 Normal termination of Gaussian 03 at Fri Jun 12 17:41:24 2015.
