 Gaussian 03, Revision E.01,
 Gaussian 03:  EM64T-G03RevE.01 11-Sep-2007

 ----------------------------------------------------
 # b3lyp/6-31+G(d,p) int=ultrafine pop=(ReadRadii,MK)
 ----------------------------------------------------

 -------------------------------------
 Ca3PO4_187.mol2c_plusQ.z51195.zip.xyz
 -------------------------------------
 Symbolic Z-matrix:
 Charge =  1 Multiplicity = 1

                         Standard orientation:
 ---------------------------------------------------------------------
 Center     Atomic     Atomic              Coordinates (Angstroms)
 Number     Number      Type              X           Y           Z
 ---------------------------------------------------------------------
    1          8             0       -1.405030   -1.079862    1.282451
    2          8             0       -1.404920   -1.079782   -1.282519
    3          8             0        1.311378    0.394322    0.000051
    4          8             0       -1.061805    2.235529    0.000061
    5         15             0       -1.884750   -1.793862   -0.000079
    6         20             0       -0.326633    0.963280   -1.594849
    7         20             0        3.091059   -0.769146    0.000021
    8         20             0       -0.326713    0.963180    1.594871
 ---------------------------------------------------------------------

 SCF Done:  E(RB+HF-LYP) =  -2674.94658404     A.U. after   13 cycles

 The electronic state is 1-A.
 Alpha  occ. eigenvalues -- -145.57083-145.45573-145.45572 -77.25735 -19.23714
 Alpha  occ. eigenvalues --  -19.23709 -19.19355 -19.12915 -15.63968 -15.52450
 Alpha  occ. eigenvalues --  -15.52449 -12.77182 -12.77173 -12.77037 -12.65675
 Alpha  occ. eigenvalues --  -12.65674 -12.65616 -12.65616 -12.65560 -12.65559
 Alpha  occ. eigenvalues --   -6.71285  -4.87722  -4.87502  -4.87078  -2.00966
 Alpha  occ. eigenvalues --   -1.89824  -1.89726  -1.28576  -1.28483  -1.27693
 Alpha  occ. eigenvalues --   -1.18175  -1.17476  -1.17446  -1.17262  -1.16984
 Alpha  occ. eigenvalues --   -1.16628  -1.09564  -1.04303  -0.93615  -0.86312
 Alpha  occ. eigenvalues --   -0.63068  -0.52534  -0.48635  -0.48380  -0.41404
 Alpha  occ. eigenvalues --   -0.39777  -0.39761  -0.38856  -0.37360  -0.36021
 Alpha  occ. eigenvalues --   -0.31541  -0.30022  -0.29006
 Alpha virt. eigenvalues --   -0.25691  -0.17403  -0.17237  -0.16137  -0.15711
 Alpha virt. eigenvalues --   -0.14549  -0.13174  -0.08692  -0.08011  -0.07992
 Alpha virt. eigenvalues --   -0.07625  -0.07284  -0.06424  -0.06067  -0.05934

 Mulliken atomic charges:
              1
     1  O   -0.674730
     2  O   -0.674656
     3  O   -1.253787
     4  O   -1.003964
     5  P    0.580802
     6  Ca   1.399156
     7  Ca   1.228027
     8  Ca   1.399152
 Sum of Mulliken charges=   1.00000

 Dipole moment (field-independent basis, Debye):
    X=    15.3101    Y=    -2.8657    Z=    -0.0008  Tot=    15.5760
 Quadrupole moment (field-independent basis, Debye-Ang):
   XX=   -33.2223   YY=   -85.1080   ZZ=   -42.9981
   XY=   -11.8484   XZ=     0.0004   YZ=    -0.0013

 Normal termination of Gaussian 03 at Fri Jun 12 17:40:59 2015.
