 Gaussian 03, Revision E.01,
 Gaussian 03:  EM64T-G03RevE.01 11-Sep-2007

 ----------------------------------------------------
 # b3lyp/6-31+G(d,p) int=ultrafine pop=(ReadRadii,MK)
 ----------------------------------------------------

 ------------------------------------
 Ca3PO4_85.mol2c_plusQ.z51502.zip.xyz
 ------------------------------------
 Symbolic Z-matrix:
 Charge =  1 Multiplicity = 1

                         Standard orientation:
 ---------------------------------------------------------------------
 Center     Atomic     Atomic              Coordinates (Angstroms)
 Number     Number      Type              X           Y           Z
 ---------------------------------------------------------------------
    1          8             0        1.269799    0.912042    0.425950
    2          8             0       -2.867811    0.985488   -0.477250
    3          8             0       -0.583969   -0.826510    0.344620
    4          8             0        1.936331   -1.512358    0.043830
    5         15             0        0.901201   -0.719809    0.975070
    6         20             0       -2.691409   -1.126481   -0.394160
    7         20             0       -0.942281    1.633600    0.248780
    8         20             0        3.056050    0.209273   -0.720780
 ---------------------------------------------------------------------

 SCF Done:  E(RB+HF-LYP) =  -2674.99497581     A.U. after    9 cycles

 The electronic state is 1-A.
 Alpha  occ. eigenvalues -- -145.54313-145.48571-145.45754 -77.24721 -19.21989
 Alpha  occ. eigenvalues --  -19.21595 -19.20158 -19.10636 -15.61174 -15.55414
 Alpha  occ. eigenvalues --  -15.52723 -12.74404 -12.74311 -12.74304 -12.68655
 Alpha  occ. eigenvalues --  -12.68576 -12.68506 -12.65983 -12.65933 -12.65736
 Alpha  occ. eigenvalues --   -6.69760  -4.86169  -4.86089  -4.85588  -1.98284
 Alpha  occ. eigenvalues --   -1.92620  -1.90128  -1.25953  -1.25785  -1.25425
 Alpha  occ. eigenvalues --   -1.20409  -1.20269  -1.19550  -1.18136  -1.17937
 Alpha  occ. eigenvalues --   -1.16946  -1.07022  -1.01224  -0.99678  -0.84842
 Alpha  occ. eigenvalues --   -0.62360  -0.51021  -0.50162  -0.47524  -0.44193
 Alpha  occ. eigenvalues --   -0.41665  -0.38710  -0.37896  -0.37639  -0.30575
 Alpha  occ. eigenvalues --   -0.30456  -0.29023  -0.28542
 Alpha virt. eigenvalues --   -0.22180  -0.18253  -0.15629  -0.13737  -0.12732
 Alpha virt. eigenvalues --   -0.10820  -0.09951  -0.09061  -0.08489  -0.08234
 Alpha virt. eigenvalues --   -0.07264  -0.06107  -0.05854  -0.05241  -0.05145

 Mulliken atomic charges:
              1
     1  O   -1.061794
     2  O   -1.138207
     3  O   -1.009839
     4  O   -0.860280
     5  P    0.890860
     6  Ca   1.376769
     7  Ca   1.396653
     8  Ca   1.405838
 Sum of Mulliken charges=   1.00000

 Dipole moment (field-independent basis, Debye):
    X=     5.9104    Y=     1.2062    Z=    -4.9210  Tot=     7.7849
 Quadrupole moment (field-independent basis, Debye-Ang):
   XX=   -18.0912   YY=   -59.8839   ZZ=   -70.0537
   XY=    36.1755   XZ=   -19.6898   YZ=     7.3925

 Normal termination of Gaussian 03 at Fri Jun 12 17:45:48 2015.
