 Gaussian 03, Revision E.01,
 Gaussian 03:  EM64T-G03RevE.01 11-Sep-2007

 ----------------------------------------------------
 # b3lyp/6-31+G(d,p) int=ultrafine pop=(ReadRadii,MK)
 ----------------------------------------------------

 ------------------------------------
 Ca3PO4_16.mol2c_plusQ.z51176.zip.xyz
 ------------------------------------
 Symbolic Z-matrix:
 Charge =  1 Multiplicity = 1

                         Standard orientation:
 ---------------------------------------------------------------------
 Center     Atomic     Atomic              Coordinates (Angstroms)
 Number     Number      Type              X           Y           Z
 ---------------------------------------------------------------------
    1          8             0        1.935649   -1.512182    0.045440
    2          8             0        1.269640    0.912828    0.425160
    3          8             0       -2.866890    0.983991   -0.479740
    4          8             0       -0.584081   -0.825501    0.347640
    5         15             0        0.901579   -0.717802    0.976890
    6         20             0       -0.943160    1.634299    0.249100
    7         20             0       -2.689621   -1.127830   -0.394670
    8         20             0        3.054870    0.208227   -0.722500
 ---------------------------------------------------------------------

 SCF Done:  E(RB+HF-LYP) =  -2674.99497639     A.U. after    9 cycles

 The electronic state is 1-A.
 Alpha  occ. eigenvalues -- -145.54313-145.48568-145.45761 -77.24719 -19.21992
 Alpha  occ. eigenvalues --  -19.21585 -19.20154 -19.10637 -15.61174 -15.55410
 Alpha  occ. eigenvalues --  -15.52730 -12.74405 -12.74311 -12.74304 -12.68651
 Alpha  occ. eigenvalues --  -12.68572 -12.68502 -12.65990 -12.65939 -12.65743
 Alpha  occ. eigenvalues --   -6.69757  -4.86166  -4.86086  -4.85585  -1.98284
 Alpha  occ. eigenvalues --   -1.92617  -1.90133  -1.25953  -1.25784  -1.25425
 Alpha  occ. eigenvalues --   -1.20406  -1.20266  -1.19547  -1.18140  -1.17941
 Alpha  occ. eigenvalues --   -1.16950  -1.07017  -1.01213  -0.99681  -0.84841
 Alpha  occ. eigenvalues --   -0.62357  -0.51018  -0.50158  -0.47521  -0.44190
 Alpha  occ. eigenvalues --   -0.41664  -0.38702  -0.37890  -0.37634  -0.30575
 Alpha  occ. eigenvalues --   -0.30457  -0.29022  -0.28539
 Alpha virt. eigenvalues --   -0.22179  -0.18253  -0.15630  -0.13738  -0.12733
 Alpha virt. eigenvalues --   -0.10820  -0.09949  -0.09063  -0.08489  -0.08231
 Alpha virt. eigenvalues --   -0.07264  -0.06108  -0.05854  -0.05241  -0.05145

 Mulliken atomic charges:
              1
     1  O   -0.860567
     2  O   -1.061665
     3  O   -1.138338
     4  O   -1.009840
     5  P    0.890894
     6  Ca   1.396795
     7  Ca   1.376942
     8  Ca   1.405779
 Sum of Mulliken charges=   1.00000

 Dipole moment (field-independent basis, Debye):
    X=     5.9053    Y=     1.2023    Z=    -4.9268  Tot=     7.7840
 Quadrupole moment (field-independent basis, Debye-Ang):
   XX=   -18.1645   YY=   -59.8328   ZZ=   -70.0460
   XY=    36.1170   XZ=   -19.7633   YZ=     7.4356

 Normal termination of Gaussian 03 at Fri Jun 12 17:39:14 2015.
