 Gaussian 03, Revision E.01,
 Gaussian 03:  EM64T-G03RevE.01 11-Sep-2007

 ----------------------------------------------------
 # b3lyp/6-31+G(d,p) int=ultrafine pop=(ReadRadii,MK)
 ----------------------------------------------------

 ------------------------------------
 Ca3PO4_175.mol2_plusQ.z51182.zip.xyz
 ------------------------------------
 Symbolic Z-matrix:
 Charge =  1 Multiplicity = 1

                         Standard orientation:
 ---------------------------------------------------------------------
 Center     Atomic     Atomic              Coordinates (Angstroms)
 Number     Number      Type              X           Y           Z
 ---------------------------------------------------------------------
    1          8             0       -0.888360    0.958981   -0.000030
    2          8             0        1.556599   -1.025051    0.001260
    3          8             0        3.360050    0.665818   -0.001340
    4          8             0       -2.962871   -1.327948    0.002090
    5         15             0        3.111949   -0.853162   -0.002990
    6         20             0        1.185161    1.559799    0.002710
    7         20             0       -0.805661   -1.422800    0.001420
    8         20             0       -3.139630    0.794152   -0.002680
 ---------------------------------------------------------------------

 SCF Done:  E(RB+HF-LYP) =  -2675.00690612     A.U. after   10 cycles

 The electronic state is 1-A.
 Alpha  occ. eigenvalues -- -145.52332-145.46885-145.45481 -77.31213 -19.29504
 Alpha  occ. eigenvalues --  -19.28803 -19.16934 -19.10387 -15.59236 -15.53787
 Alpha  occ. eigenvalues --  -15.52407 -12.72501 -12.72456 -12.72256 -12.67029
 Alpha  occ. eigenvalues --  -12.66943 -12.66865 -12.65677 -12.65586 -12.65451
 Alpha  occ. eigenvalues --   -6.76834  -4.93267  -4.93035  -4.92619  -1.96475
 Alpha  occ. eigenvalues --   -1.91087  -1.89817  -1.24405  -1.24395  -1.23358
 Alpha  occ. eigenvalues --   -1.18961  -1.18717  -1.18061  -1.17869  -1.17285
 Alpha  occ. eigenvalues --   -1.17051  -1.15056  -1.09407  -0.91679  -0.84357
 Alpha  occ. eigenvalues --   -0.68454  -0.57434  -0.54768  -0.54084  -0.46508
 Alpha  occ. eigenvalues --   -0.45057  -0.42639  -0.37788  -0.36734  -0.35743
 Alpha  occ. eigenvalues --   -0.29919  -0.28472  -0.28153
 Alpha virt. eigenvalues --   -0.21229  -0.20112  -0.17840  -0.15066  -0.12988
 Alpha virt. eigenvalues --   -0.11123  -0.10411  -0.10231  -0.09291  -0.08833
 Alpha virt. eigenvalues --   -0.08414  -0.07230  -0.06841  -0.06413  -0.05451

 Mulliken atomic charges:
              1
     1  O   -1.319895
     2  O   -0.742284
     3  O   -0.655098
     4  O   -1.128824
     5  P    0.678208
     6  Ca   1.497110
     7  Ca   1.325032
     8  Ca   1.345751
 Sum of Mulliken charges=   1.00000

 Dipole moment (field-independent basis, Debye):
    X=     0.1736    Y=     8.1091    Z=    -0.0046  Tot=     8.1110
 Quadrupole moment (field-independent basis, Debye-Ang):
   XX=   -60.0364   YY=   -52.2543   ZZ=   -68.9732
   XY=   -23.1550   XZ=     0.1056   YZ=     0.0262

 Normal termination of Gaussian 03 at Fri Jun 12 17:39:48 2015.
