 Gaussian 03, Revision E.01,
 Gaussian 03:  EM64T-G03RevE.01 11-Sep-2007

 ----------------------------------------------------
 # b3lyp/6-31+G(d,p) int=ultrafine pop=(ReadRadii,MK)
 ----------------------------------------------------

 ------------------------------------
 Ca3PO4_94.mol2c_plusQ.z51512.zip.xyz
 ------------------------------------
 Symbolic Z-matrix:
 Charge =  1 Multiplicity = 1

                         Standard orientation:
 ---------------------------------------------------------------------
 Center     Atomic     Atomic              Coordinates (Angstroms)
 Number     Number      Type              X           Y           Z
 ---------------------------------------------------------------------
    1          8             0       -0.093788    1.316101    1.393230
    2          8             0       -0.093590   -1.316889    1.392370
    3          8             0       -0.717499    0.000322   -0.715780
    4          8             0        2.604421    0.000559   -0.744530
    5         15             0       -0.823109   -0.000308    0.997740
    6         20             0        1.445510   -1.719470   -0.282560
    7         20             0        1.444493    1.719860   -0.282300
    8         20             0       -2.952489   -0.000196   -0.713560
 ---------------------------------------------------------------------

 SCF Done:  E(RB+HF-LYP) =  -2674.96650112     A.U. after   13 cycles

 The electronic state is 1-A.
 Alpha  occ. eigenvalues -- -145.57749-145.46747-145.46745 -77.27065 -19.23406
 Alpha  occ. eigenvalues --  -19.21261 -19.21260 -19.10128 -15.64611 -15.53631
 Alpha  occ. eigenvalues --  -15.53629 -12.77833 -12.77790 -12.77714 -12.66864
 Alpha  occ. eigenvalues --  -12.66863 -12.66841 -12.66839 -12.66689 -12.66687
 Alpha  occ. eigenvalues --   -6.72151  -4.88600  -4.88398  -4.88198  -2.01561
 Alpha  occ. eigenvalues --   -1.90898  -1.90853  -1.29131  -1.28803  -1.28681
 Alpha  occ. eigenvalues --   -1.18993  -1.18607  -1.18560  -1.18498  -1.18140
 Alpha  occ. eigenvalues --   -1.17479  -1.09141  -1.02577  -1.01725  -0.84392
 Alpha  occ. eigenvalues --   -0.62419  -0.51514  -0.50558  -0.50508  -0.44533
 Alpha  occ. eigenvalues --   -0.42735  -0.39955  -0.39094  -0.36778  -0.32329
 Alpha  occ. eigenvalues --   -0.30224  -0.28591  -0.28306
 Alpha virt. eigenvalues --   -0.24238  -0.17206  -0.16591  -0.15182  -0.15037
 Alpha virt. eigenvalues --   -0.12541  -0.09075  -0.08926  -0.08303  -0.07518
 Alpha virt. eigenvalues --   -0.07138  -0.06366  -0.06274  -0.05750  -0.05606

 Mulliken atomic charges:
              1
     1  O   -0.751485
     2  O   -0.751510
     3  O   -0.863614
     4  O   -1.150307
     5  P    0.436009
     6  Ca   1.379545
     7  Ca   1.379576
     8  Ca   1.321786
 Sum of Mulliken charges=   1.00000

 Dipole moment (field-independent basis, Debye):
    X=   -10.7893    Y=    -0.0011    Z=    -7.9911  Tot=    13.4264
 Quadrupole moment (field-independent basis, Debye-Ang):
   XX=   -34.7714   YY=   -37.6214   ZZ=   -82.9838
   XY=    -0.0140   XZ=    20.6286   YZ=     0.0071

 Normal termination of Gaussian 03 at Fri Jun 12 17:46:49 2015.
