 Gaussian 03, Revision E.01,
 Gaussian 03:  EM64T-G03RevE.01 11-Sep-2007

 ----------------------------------------------------
 # b3lyp/6-31+G(d,p) int=ultrafine pop=(ReadRadii,MK)
 ----------------------------------------------------

 --------------------------------------
 Ca3PO4_145.mol2cc_plusQ.z51149.zip.xyz
 --------------------------------------
 Symbolic Z-matrix:
 Charge =  1 Multiplicity = 1

                         Standard orientation:
 ---------------------------------------------------------------------
 Center     Atomic     Atomic              Coordinates (Angstroms)
 Number     Number      Type              X           Y           Z
 ---------------------------------------------------------------------
    1          8             0        0.683663   -1.313245    0.922600
    2          8             0        0.795100    1.249096    0.922370
    3          8             0       -1.479555    0.064379    0.922130
    4          8             0        0.000601   -0.000104   -1.711890
    5         15             0       -0.000262    0.000157    1.718050
    6         20             0       -0.898802    1.725687   -0.570460
    7         20             0        1.944291   -0.084588   -0.569860
    8         20             0       -1.045217   -1.641267   -0.570300
 ---------------------------------------------------------------------

 SCF Done:  E(RB+HF-LYP) =  -2675.07103873     A.U. after    8 cycles

 The electronic state is 1-A.
 Alpha  occ. eigenvalues -- -145.49641-145.49636-145.49634 -77.25054 -19.21226
 Alpha  occ. eigenvalues --  -19.21224 -19.21221 -19.15945 -15.56474 -15.56471
 Alpha  occ. eigenvalues --  -15.56470 -12.69671 -12.69670 -12.69669 -12.69649
 Alpha  occ. eigenvalues --  -12.69648 -12.69645 -12.69601 -12.69601 -12.69599
 Alpha  occ. eigenvalues --   -6.70084  -4.86433  -4.86433  -4.85896  -1.93824
 Alpha  occ. eigenvalues --   -1.93739  -1.93738  -1.22377  -1.21695  -1.21695
 Alpha  occ. eigenvalues --   -1.21306  -1.21139  -1.21065  -1.21064  -1.20643
 Alpha  occ. eigenvalues --   -1.20642  -1.06761  -1.00358  -1.00355  -0.90943
 Alpha  occ. eigenvalues --   -0.62642  -0.50529  -0.50528  -0.47962  -0.43359
 Alpha  occ. eigenvalues --   -0.43358  -0.38345  -0.38343  -0.38178  -0.36138
 Alpha  occ. eigenvalues --   -0.36137  -0.34593  -0.30859
 Alpha virt. eigenvalues --   -0.19950  -0.18027  -0.18026  -0.12555  -0.12554
 Alpha virt. eigenvalues --   -0.10894  -0.09478  -0.09477  -0.08339  -0.07772
 Alpha virt. eigenvalues --   -0.06545  -0.06114  -0.06114  -0.04765  -0.04715

 Mulliken atomic charges:
              1
     1  O   -1.032210
     2  O   -1.032209
     3  O   -1.032257
     4  O   -1.251163
     5  P    1.098041
     6  Ca   1.416552
     7  Ca   1.416677
     8  Ca   1.416569
 Sum of Mulliken charges=   1.00000

 Dipole moment (field-independent basis, Debye):
    X=     0.0017    Y=    -0.0011    Z=    -8.2298  Tot=     8.2298
 Quadrupole moment (field-independent basis, Debye-Ang):
   XX=   -40.0232   YY=   -40.0365   ZZ=   -90.0157
   XY=    -0.0004   XZ=     0.0129   YZ=    -0.0023

 Normal termination of Gaussian 03 at Fri Jun 12 17:37:52 2015.
