 Gaussian 03, Revision E.01,
 Gaussian 03:  EM64T-G03RevE.01 11-Sep-2007

 ----------------------------------------------------
 # b3lyp/6-31+G(d,p) int=ultrafine pop=(ReadRadii,MK)
 ----------------------------------------------------

 ------------------------------------
 Ca3PO4_108.mol2_plusQ.z51108.zip.xyz
 ------------------------------------
 Symbolic Z-matrix:
 Charge =  1 Multiplicity = 1

                         Standard orientation:
 ---------------------------------------------------------------------
 Center     Atomic     Atomic              Coordinates (Angstroms)
 Number     Number      Type              X           Y           Z
 ---------------------------------------------------------------------
    1          8             0       -0.093010   -1.318940    1.390220
    2          8             0        2.604459    0.003521   -0.744530
    3          8             0       -0.094421    1.314060    1.395410
    4          8             0       -0.717471    0.001820   -0.715750
    5         15             0       -0.823121   -0.002020    0.997760
    6         20             0        1.448160   -1.718379   -0.283290
    7         20             0        1.441819    1.720881   -0.281580
    8         20             0       -2.952461   -0.001171   -0.713590
 ---------------------------------------------------------------------

 SCF Done:  E(RB+HF-LYP) =  -2674.96650128     A.U. after   13 cycles

 The electronic state is 1-A.
 Alpha  occ. eigenvalues -- -145.57749-145.46751-145.46741 -77.27065 -19.23406
 Alpha  occ. eigenvalues --  -19.21265 -19.21257 -19.10128 -15.64611 -15.53635
 Alpha  occ. eigenvalues --  -15.53625 -12.77834 -12.77790 -12.77714 -12.66869
 Alpha  occ. eigenvalues --  -12.66858 -12.66845 -12.66835 -12.66693 -12.66683
 Alpha  occ. eigenvalues --   -6.72151  -4.88601  -4.88398  -4.88198  -2.01562
 Alpha  occ. eigenvalues --   -1.90899  -1.90853  -1.29132  -1.28803  -1.28681
 Alpha  occ. eigenvalues --   -1.18994  -1.18607  -1.18560  -1.18498  -1.18140
 Alpha  occ. eigenvalues --   -1.17479  -1.09141  -1.02577  -1.01725  -0.84392
 Alpha  occ. eigenvalues --   -0.62419  -0.51514  -0.50558  -0.50508  -0.44534
 Alpha  occ. eigenvalues --   -0.42735  -0.39955  -0.39095  -0.36778  -0.32330
 Alpha  occ. eigenvalues --   -0.30224  -0.28591  -0.28307
 Alpha virt. eigenvalues --   -0.24238  -0.17206  -0.16591  -0.15182  -0.15037
 Alpha virt. eigenvalues --   -0.12541  -0.09075  -0.08926  -0.08303  -0.07518
 Alpha virt. eigenvalues --   -0.07138  -0.06366  -0.06274  -0.05750  -0.05607

 Mulliken atomic charges:
              1
     1  O   -0.751552
     2  O   -1.150297
     3  O   -0.751424
     4  O   -0.863628
     5  P    0.435999
     6  Ca   1.379453
     7  Ca   1.379656
     8  Ca   1.321793
 Sum of Mulliken charges=   1.00000

 Dipole moment (field-independent basis, Debye):
    X=   -10.7895    Y=    -0.0060    Z=    -7.9914  Tot=    13.4267
 Quadrupole moment (field-independent basis, Debye-Ang):
   XX=   -34.7736   YY=   -37.6233   ZZ=   -82.9832
   XY=    -0.0883   XZ=    20.6294   YZ=     0.0448

 Normal termination of Gaussian 03 at Fri Jun 12 17:36:35 2015.
