 Gaussian 03, Revision E.01,
 Gaussian 03:  EM64T-G03RevE.01 11-Sep-2007

 ----------------------------------------------------
 # b3lyp/6-31+G(d,p) int=ultrafine pop=(ReadRadii,MK)
 ----------------------------------------------------

 -------------------------------------
 Ca3PO4_102.mol2c_plusQ.z51102.zip.xyz
 -------------------------------------
 Symbolic Z-matrix:
 Charge =  1 Multiplicity = 1

                         Standard orientation:
 ---------------------------------------------------------------------
 Center     Atomic     Atomic              Coordinates (Angstroms)
 Number     Number      Type              X           Y           Z
 ---------------------------------------------------------------------
    1          8             0       -0.586619   -1.253450   -0.107891
    2          8             0       -2.239720    0.000428    1.330889
    3          8             0       -0.587612    1.253430   -0.109661
    4          8             0        2.692660    0.000354   -0.333141
    5         15             0       -0.692110    0.000520    1.034689
    6         20             0        1.623128    1.818153   -0.076161
    7         20             0        1.624302   -1.817857   -0.075831
    8         20             0       -2.439830   -0.000992   -0.936101
 ---------------------------------------------------------------------

 SCF Done:  E(RB+HF-LYP) =  -2674.99967764     A.U. after    8 cycles

 The electronic state is 1-A.
 Alpha  occ. eigenvalues -- -145.52894-145.48528-145.48524 -77.24507 -19.21570
 Alpha  occ. eigenvalues --  -19.21552 -19.18909 -19.12199 -15.59691 -15.55431
 Alpha  occ. eigenvalues --  -15.55427 -12.72874 -12.72869 -12.72858 -12.68683
 Alpha  occ. eigenvalues --  -12.68679 -12.68614 -12.68610 -12.68490 -12.68485
 Alpha  occ. eigenvalues --   -6.69823  -4.86203  -4.86126  -4.85705  -1.96735
 Alpha  occ. eigenvalues --   -1.92695  -1.92669  -1.24714  -1.23998  -1.23961
 Alpha  occ. eigenvalues --   -1.20604  -1.20533  -1.20418  -1.20161  -1.19804
 Alpha  occ. eigenvalues --   -1.19311  -1.06956  -0.99976  -0.99934  -0.86583
 Alpha  occ. eigenvalues --   -0.61882  -0.49715  -0.49550  -0.48423  -0.42895
 Alpha  occ. eigenvalues --   -0.42361  -0.38149  -0.37916  -0.34576  -0.32844
 Alpha  occ. eigenvalues --   -0.32551  -0.30674  -0.30271
 Alpha virt. eigenvalues --   -0.20425  -0.18312  -0.17402  -0.12508  -0.11992
 Alpha virt. eigenvalues --   -0.10387  -0.10052  -0.08964  -0.08369  -0.08013
 Alpha virt. eigenvalues --   -0.07400  -0.06925  -0.06470  -0.05554  -0.05313

 Mulliken atomic charges:
              1
     1  O   -0.957483
     2  O   -0.880293
     3  O   -0.957349
     4  O   -1.183670
     5  P    0.749773
     6  Ca   1.424310
     7  Ca   1.424400
     8  Ca   1.380311
 Sum of Mulliken charges=   1.00000

 Dipole moment (field-independent basis, Debye):
    X=    -1.5018    Y=    -0.0090    Z=    -7.5024  Tot=     7.6512
 Quadrupole moment (field-independent basis, Debye-Ang):
   XX=   -53.1621   YY=   -32.2962   ZZ=   -70.0654
   XY=     0.0064   XZ=    28.1267   YZ=     0.0097

 Normal termination of Gaussian 03 at Fri Jun 12 17:35:59 2015.
