 Gaussian 03, Revision E.01,
 Gaussian 03:  EM64T-G03RevE.01 11-Sep-2007

 ----------------------------------------------------
 # b3lyp/6-31+G(d,p) int=ultrafine pop=(ReadRadii,MK)
 ----------------------------------------------------

 -------------------------------------
 Ca3PO4_170.mol2c_plusQ.z51177.zip.xyz
 -------------------------------------
 Symbolic Z-matrix:
 Charge =  1 Multiplicity = 1

                         Standard orientation:
 ---------------------------------------------------------------------
 Center     Atomic     Atomic              Coordinates (Angstroms)
 Number     Number      Type              X           Y           Z
 ---------------------------------------------------------------------
    1          8             0       -2.046687   -0.889035   -0.784999
    2          8             0       -2.045867   -0.888625    0.785481
    3          8             0        1.740095   -1.708196    0.000171
    4          8             0        2.256799    0.779885   -0.000439
    5         15             0        2.856473   -0.639153    0.000231
    6         20             0        0.885895    2.627982   -0.000069
    7         20             0       -2.527082    1.173574    0.000051
    8         20             0       -0.462904   -2.239801   -0.000239
 ---------------------------------------------------------------------

 SCF Done:  E(RB+HF-LYP) =  -2674.90063744     A.U. after   10 cycles

 The electronic state is 1-A.
 Alpha  occ. eigenvalues -- -145.51408-145.50958-145.49493 -77.29439 -19.27282
 Alpha  occ. eigenvalues --  -19.27148 -19.23949 -19.23944 -15.58397 -15.57831
 Alpha  occ. eigenvalues --  -15.56468 -12.71592 -12.71577 -12.71466 -12.71064
 Alpha  occ. eigenvalues --  -12.71049 -12.70903 -12.69685 -12.69653 -12.69539
 Alpha  occ. eigenvalues --   -6.74926  -4.91371  -4.91151  -4.90702  -1.95527
 Alpha  occ. eigenvalues --   -1.95025  -1.93678  -1.23157  -1.23029  -1.22962
 Alpha  occ. eigenvalues --   -1.22711  -1.22658  -1.22631  -1.21319  -1.21154
 Alpha  occ. eigenvalues --   -1.20985  -1.13243  -1.07947  -1.06512  -0.87738
 Alpha  occ. eigenvalues --   -0.67205  -0.56772  -0.52050  -0.51926  -0.47329
 Alpha  occ. eigenvalues --   -0.46451  -0.45148  -0.44571  -0.43333  -0.39978
 Alpha  occ. eigenvalues --   -0.35756  -0.32202  -0.27375
 Alpha virt. eigenvalues --   -0.19209  -0.18704  -0.17852  -0.14892  -0.13674
 Alpha virt. eigenvalues --   -0.12170  -0.11966  -0.10033  -0.09275  -0.08010
 Alpha virt. eigenvalues --   -0.07804  -0.07424  -0.06922  -0.06780  -0.05865

 Mulliken atomic charges:
              1
     1  O   -0.641779
     2  O   -0.641750
     3  O   -0.712021
     4  O   -0.627238
     5  P    0.677991
     6  Ca   0.586198
     7  Ca   0.912981
     8  Ca   1.445618
 Sum of Mulliken charges=   1.00000

 Dipole moment (field-independent basis, Debye):
    X=    -1.8193    Y=     0.6462    Z=    -0.0018  Tot=     1.9307
 Quadrupole moment (field-independent basis, Debye-Ang):
   XX=   -62.3618   YY=   -34.5929   ZZ=   -80.2290
   XY=    -0.0344   XZ=     0.0014   YZ=     0.0071

 Normal termination of Gaussian 03 at Fri Jun 12 17:39:24 2015.
