 Gaussian 03, Revision E.01,
 Gaussian 03:  EM64T-G03RevE.01 11-Sep-2007

 ----------------------------------------------------
 # b3lyp/6-31+G(d,p) int=ultrafine pop=(ReadRadii,MK)
 ----------------------------------------------------

 --------------------------------------
 Ca3PO4_158.mol2c_plusQc.z51688.zip.xyz
 --------------------------------------
 Symbolic Z-matrix:
 Charge =  1 Multiplicity = 1

                         Standard orientation:
 ---------------------------------------------------------------------
 Center     Atomic     Atomic              Coordinates (Angstroms)
 Number     Number      Type              X           Y           Z
 ---------------------------------------------------------------------
    1          8             0       -2.075317   -1.270425    0.001028
    2          8             0        1.786474    1.880056   -0.000932
    3          8             0       -2.064174    1.279945    0.000788
    4          8             0        1.774205   -1.889634    0.001438
    5         15             0       -2.936671    0.008513   -0.001642
    6         20             0       -0.208254   -2.591390    0.000178
    7         20             0        2.834259   -0.008221   -0.000792
    8         20             0       -0.191978    2.593250    0.000918
 ---------------------------------------------------------------------

 SCF Done:  E(RB+HF-LYP) =  -2674.99692692     A.U. after    7 cycles

 The electronic state is 1-A.
 Alpha  occ. eigenvalues -- -145.49208-145.49204-145.42875 -77.29680 -19.27528
 Alpha  occ. eigenvalues --  -19.27527 -19.11841 -19.11828 -15.56113 -15.56111
 Alpha  occ. eigenvalues --  -15.49907 -12.69367 -12.69364 -12.69323 -12.69320
 Alpha  occ. eigenvalues --  -12.69147 -12.69144 -12.63163 -12.63111 -12.62903
 Alpha  occ. eigenvalues --   -6.75168  -4.91614  -4.91391  -4.90948  -1.93355
 Alpha  occ. eigenvalues --   -1.93353  -1.87397  -1.21221  -1.21219  -1.21125
 Alpha  occ. eigenvalues --   -1.21056  -1.20284  -1.20239  -1.15438  -1.15129
 Alpha  occ. eigenvalues --   -1.14226  -1.13367  -1.08165  -0.86236  -0.85663
 Alpha  occ. eigenvalues --   -0.67431  -0.56992  -0.52246  -0.52202  -0.45474
 Alpha  occ. eigenvalues --   -0.43645  -0.40116  -0.33053  -0.31445  -0.30730
 Alpha  occ. eigenvalues --   -0.30324  -0.30162  -0.29707
 Alpha virt. eigenvalues --   -0.19443  -0.18401  -0.17737  -0.14277  -0.11281
 Alpha virt. eigenvalues --   -0.10200  -0.10178  -0.08906  -0.08322  -0.07854
 Alpha virt. eigenvalues --   -0.07520  -0.06905  -0.06053  -0.05562  -0.04928

 Mulliken atomic charges:
              1
     1  O   -0.701479
     2  O   -1.243770
     3  O   -0.701513
     4  O   -1.243995
     5  P    0.646394
     6  Ca   1.442826
     7  Ca   1.358856
     8  Ca   1.442680
 Sum of Mulliken charges=   1.00000

 Dipole moment (field-independent basis, Debye):
    X=    -0.8623    Y=     0.0074    Z=    -0.0062  Tot=     0.8623
 Quadrupole moment (field-independent basis, Debye-Ang):
   XX=   -57.1793   YY=   -26.5838   ZZ=   -69.0834
   XY=     0.0647   XZ=    -0.0152   YZ=     0.0437

 Normal termination of Gaussian 03 at Fri Jun 12 17:38:32 2015.
