 Gaussian 03, Revision E.01,
 Gaussian 03:  EM64T-G03RevE.01 11-Sep-2007

 ----------------------------------------------------
 # b3lyp/6-31+G(d,p) int=ultrafine pop=(ReadRadii,MK)
 ----------------------------------------------------

 -------------------------------------
 Ca3PO4_119.mol2c_plusQ.z51120.zip.xyz
 -------------------------------------
 Symbolic Z-matrix:
 Charge =  1 Multiplicity = 1

                         Standard orientation:
 ---------------------------------------------------------------------
 Center     Atomic     Atomic              Coordinates (Angstroms)
 Number     Number      Type              X           Y           Z
 ---------------------------------------------------------------------
    1          8             0       -0.685504   -1.311696    0.922949
    2          8             0       -0.000982   -0.000494   -1.712081
    3          8             0       -0.792907    1.250567    0.921949
    4          8             0        1.479877    0.061865    0.921889
    5         15             0        0.000755    0.000807    1.717909
    6         20             0       -1.944712   -0.081553   -0.569291
    7         20             0        0.901629    1.723788   -0.570931
    8         20             0        1.042323   -1.642937   -0.570091
 ---------------------------------------------------------------------

 SCF Done:  E(RB+HF-LYP) =  -2675.07103766     A.U. after    8 cycles

 The electronic state is 1-A.
 Alpha  occ. eigenvalues -- -145.49641-145.49635-145.49632 -77.25054 -19.21242
 Alpha  occ. eigenvalues --  -19.21230 -19.21203 -19.15945 -15.56474 -15.56471
 Alpha  occ. eigenvalues --  -15.56468 -12.69672 -12.69670 -12.69667 -12.69649
 Alpha  occ. eigenvalues --  -12.69647 -12.69644 -12.69602 -12.69600 -12.69597
 Alpha  occ. eigenvalues --   -6.70084  -4.86433  -4.86433  -4.85896  -1.93823
 Alpha  occ. eigenvalues --   -1.93739  -1.93737  -1.22378  -1.21696  -1.21695
 Alpha  occ. eigenvalues --   -1.21306  -1.21139  -1.21065  -1.21063  -1.20643
 Alpha  occ. eigenvalues --   -1.20640  -1.06766  -1.00368  -1.00353  -0.90941
 Alpha  occ. eigenvalues --   -0.62644  -0.50536  -0.50530  -0.47966  -0.43362
 Alpha  occ. eigenvalues --   -0.43362  -0.38353  -0.38341  -0.38181  -0.36138
 Alpha  occ. eigenvalues --   -0.36134  -0.34592  -0.30859
 Alpha virt. eigenvalues --   -0.19949  -0.18027  -0.18025  -0.12555  -0.12553
 Alpha virt. eigenvalues --   -0.10893  -0.09479  -0.09476  -0.08338  -0.07771
 Alpha virt. eigenvalues --   -0.06545  -0.06114  -0.06114  -0.04765  -0.04715

 Mulliken atomic charges:
              1
     1  O   -1.032076
     2  O   -1.251102
     3  O   -1.032234
     4  O   -1.032396
     5  P    1.098073
     6  Ca   1.416772
     7  Ca   1.416476
     8  Ca   1.416486
 Sum of Mulliken charges=   1.00000

 Dipole moment (field-independent basis, Debye):
    X=    -0.0061    Y=    -0.0043    Z=    -8.2260  Tot=     8.2260
 Quadrupole moment (field-independent basis, Debye-Ang):
   XX=   -40.0165   YY=   -40.0442   ZZ=   -90.0213
   XY=     0.0061   XZ=    -0.0257   YZ=    -0.0129

 Normal termination of Gaussian 03 at Fri Jun 12 17:36:13 2015.
