 Gaussian 03, Revision E.01,
 Gaussian 03:  EM64T-G03RevE.01 11-Sep-2007

 ----------------------------------------------------
 # b3lyp/6-31+G(d,p) int=ultrafine pop=(ReadRadii,MK)
 ----------------------------------------------------

 ------------------------------------
 Ca3PO4_149.mol2_plusQ.z51153.zip.xyz
 ------------------------------------
 Symbolic Z-matrix:
 Charge =  1 Multiplicity = 1

                         Standard orientation:
 ---------------------------------------------------------------------
 Center     Atomic     Atomic              Coordinates (Angstroms)
 Number     Number      Type              X           Y           Z
 ---------------------------------------------------------------------
    1          8             0       -0.777218    1.260372    0.922330
    2          8             0       -0.702665   -1.303476    0.922290
    3          8             0        1.480311    0.042915    0.922570
    4          8             0       -0.000290    0.000040   -1.712070
    5         15             0       -0.000020   -0.000032    1.718190
    6         20             0       -1.945161   -0.056485   -0.570060
    7         20             0        1.021489   -1.656096   -0.570370
    8         20             0        0.923632    1.712665   -0.570260
 ---------------------------------------------------------------------

 SCF Done:  E(RB+HF-LYP) =  -2675.07103915     A.U. after    8 cycles

 The electronic state is 1-A.
 Alpha  occ. eigenvalues -- -145.49642-145.49637-145.49635 -77.25056 -19.21227
 Alpha  occ. eigenvalues --  -19.21227 -19.21220 -19.15948 -15.56476 -15.56472
 Alpha  occ. eigenvalues --  -15.56471 -12.69673 -12.69671 -12.69670 -12.69650
 Alpha  occ. eigenvalues --  -12.69649 -12.69647 -12.69603 -12.69601 -12.69600
 Alpha  occ. eigenvalues --   -6.70086  -4.86435  -4.86435  -4.85899  -1.93824
 Alpha  occ. eigenvalues --   -1.93740  -1.93739  -1.22378  -1.21696  -1.21696
 Alpha  occ. eigenvalues --   -1.21307  -1.21140  -1.21066  -1.21065  -1.20644
 Alpha  occ. eigenvalues --   -1.20643  -1.06757  -1.00356  -1.00353  -0.90944
 Alpha  occ. eigenvalues --   -0.62644  -0.50527  -0.50526  -0.47960  -0.43357
 Alpha  occ. eigenvalues --   -0.43357  -0.38344  -0.38342  -0.38178  -0.36139
 Alpha  occ. eigenvalues --   -0.36138  -0.34594  -0.30862
 Alpha virt. eigenvalues --   -0.19950  -0.18027  -0.18026  -0.12555  -0.12554
 Alpha virt. eigenvalues --   -0.10894  -0.09478  -0.09477  -0.08338  -0.07772
 Alpha virt. eigenvalues --   -0.06545  -0.06114  -0.06114  -0.04765  -0.04716

 Mulliken atomic charges:
              1
     1  O   -1.032244
     2  O   -1.032175
     3  O   -1.032302
     4  O   -1.251200
     5  P    1.098018
     6  Ca   1.416660
     7  Ca   1.416609
     8  Ca   1.416634
 Sum of Mulliken charges=   1.00000

 Dipole moment (field-independent basis, Debye):
    X=    -0.0010    Y=     0.0006    Z=    -8.2291  Tot=     8.2291
 Quadrupole moment (field-independent basis, Debye-Ang):
   XX=   -40.0273   YY=   -40.0355   ZZ=   -90.0149
   XY=     0.0012   XZ=    -0.0087   YZ=     0.0013

 Normal termination of Gaussian 03 at Fri Jun 12 17:38:12 2015.
