 Gaussian 03, Revision E.01,
 Gaussian 03:  EM64T-G03RevE.01 11-Sep-2007

 ----------------------------------------------------
 # b3lyp/6-31+G(d,p) int=ultrafine pop=(ReadRadii,MK)
 ----------------------------------------------------

 ------------------------------------
 Ca3PO4_70.mol2c_plusQ.z51486.zip.xyz
 ------------------------------------
 Symbolic Z-matrix:
 Charge =  1 Multiplicity = 1

                         Standard orientation:
 ---------------------------------------------------------------------
 Center     Atomic     Atomic              Coordinates (Angstroms)
 Number     Number      Type              X           Y           Z
 ---------------------------------------------------------------------
    1          8             0       -0.903971    1.174291    0.921250
    2          8             0       -0.565109   -1.368224    0.923040
    3          8             0        1.467666    0.196038    0.923210
    4          8             0        0.001222   -0.001757   -1.711550
    5         15             0       -0.001396    0.001026    1.718370
    6         20             0        1.187394   -1.541777   -0.568930
    7         20             0       -1.928511   -0.257324   -0.571290
    8         20             0        0.742241    1.798192   -0.570940
 ---------------------------------------------------------------------

 SCF Done:  E(RB+HF-LYP) =  -2675.07103838     A.U. after    8 cycles

 The electronic state is 1-A.
 Alpha  occ. eigenvalues -- -145.49644-145.49635-145.49623 -77.25059 -19.21245
 Alpha  occ. eigenvalues --  -19.21238 -19.21185 -19.15941 -15.56478 -15.56470
 Alpha  occ. eigenvalues --  -15.56459 -12.69676 -12.69668 -12.69657 -12.69654
 Alpha  occ. eigenvalues --  -12.69646 -12.69634 -12.69606 -12.69599 -12.69587
 Alpha  occ. eigenvalues --   -6.70088  -4.86437  -4.86437  -4.85900  -1.93822
 Alpha  occ. eigenvalues --   -1.93741  -1.93731  -1.22375  -1.21696  -1.21690
 Alpha  occ. eigenvalues --   -1.21305  -1.21137  -1.21065  -1.21058  -1.20644
 Alpha  occ. eigenvalues --   -1.20635  -1.06748  -1.00363  -1.00333  -0.90944
 Alpha  occ. eigenvalues --   -0.62642  -0.50525  -0.50516  -0.47954  -0.43353
 Alpha  occ. eigenvalues --   -0.43350  -0.38348  -0.38332  -0.38173  -0.36141
 Alpha  occ. eigenvalues --   -0.36139  -0.34596  -0.30863
 Alpha virt. eigenvalues --   -0.19949  -0.18028  -0.18023  -0.12556  -0.12552
 Alpha virt. eigenvalues --   -0.10893  -0.09479  -0.09475  -0.08337  -0.07771
 Alpha virt. eigenvalues --   -0.06545  -0.06114  -0.06113  -0.04765  -0.04717

 Mulliken atomic charges:
              1
     1  O   -1.032382
     2  O   -1.032196
     3  O   -1.031947
     4  O   -1.251075
     5  P    1.097956
     6  Ca   1.416460
     7  Ca   1.416667
     8  Ca   1.416517
 Sum of Mulliken charges=   1.00000

 Dipole moment (field-independent basis, Debye):
    X=     0.0029    Y=    -0.0044    Z=    -8.2363  Tot=     8.2363
 Quadrupole moment (field-independent basis, Debye-Ang):
   XX=   -40.0382   YY=   -40.0564   ZZ=   -89.9984
   XY=     0.0063   XZ=     0.0288   YZ=    -0.0382

 Normal termination of Gaussian 03 at Fri Jun 12 17:44:55 2015.
