 Gaussian 03, Revision E.01,
 Gaussian 03:  EM64T-G03RevE.01 11-Sep-2007

 ----------------------------------------------------
 # b3lyp/6-31+G(d,p) int=ultrafine pop=(ReadRadii,MK)
 ----------------------------------------------------

 ------------------------------------
 Ca3PO4_57.mol2c_plusQ.z51700.zip.xyz
 ------------------------------------
 Symbolic Z-matrix:
 Charge =  1 Multiplicity = 1

                         Standard orientation:
 ---------------------------------------------------------------------
 Center     Atomic     Atomic              Coordinates (Angstroms)
 Number     Number      Type              X           Y           Z
 ---------------------------------------------------------------------
    1          8             0        2.950142    0.670417    0.000030
    2          8             0        1.667200   -1.500462    0.000270
    3          8             0       -0.830738    0.944540   -0.000210
    4          8             0       -2.841200   -1.414649    0.000010
    5         15             0        3.073671   -0.877303    0.000470
    6         20             0       -0.673510   -1.459080   -0.000550
    7         20             0       -3.085318    0.692341    0.000450
    8         20             0        1.075413    1.944778   -0.000290
 ---------------------------------------------------------------------

 SCF Done:  E(RB+HF-LYP) =  -2675.00579528     A.U. after   10 cycles

 The electronic state is 1-A.
 Alpha  occ. eigenvalues -- -145.53273-145.47081-145.44488 -77.29408 -19.27577
 Alpha  occ. eigenvalues --  -19.27201 -19.17719 -19.10354 -15.60166 -15.53981
 Alpha  occ. eigenvalues --  -15.51446 -12.73422 -12.73370 -12.73209 -12.67221
 Alpha  occ. eigenvalues --  -12.67138 -12.67059 -12.64722 -12.64632 -12.64477
 Alpha  occ. eigenvalues --   -6.74957  -4.91397  -4.91173  -4.90736  -1.97366
 Alpha  occ. eigenvalues --   -1.91276  -1.88897  -1.25219  -1.25068  -1.24236
 Alpha  occ. eigenvalues --   -1.19142  -1.18815  -1.18233  -1.17002  -1.16391
 Alpha  occ. eigenvalues --   -1.16278  -1.13245  -1.07847  -0.92332  -0.84316
 Alpha  occ. eigenvalues --   -0.66981  -0.56444  -0.52402  -0.52186  -0.45142
 Alpha  occ. eigenvalues --   -0.43250  -0.40558  -0.38454  -0.37480  -0.36320
 Alpha  occ. eigenvalues --   -0.29848  -0.28437  -0.28141
 Alpha virt. eigenvalues --   -0.21376  -0.19380  -0.18292  -0.14057  -0.13459
 Alpha virt. eigenvalues --   -0.11735  -0.10631  -0.10448  -0.08687  -0.08516
 Alpha virt. eigenvalues --   -0.07775  -0.07165  -0.06437  -0.06131  -0.05562

 Mulliken atomic charges:
              1
     1  O   -0.720078
     2  O   -0.683402
     3  O   -1.345637
     4  O   -1.119754
     5  P    0.671090
     6  Ca   1.347203
     7  Ca   1.326326
     8  Ca   1.524252
 Sum of Mulliken charges=   1.00000

 Dipole moment (field-independent basis, Debye):
    X=    -0.3863    Y=    11.4238    Z=    -0.0015  Tot=    11.4303
 Quadrupole moment (field-independent basis, Debye-Ang):
   XX=   -59.0436   YY=   -46.9217   ZZ=   -69.1150
   XY=   -17.5440   XZ=    -0.0098   YZ=     0.0067

 Normal termination of Gaussian 03 at Fri Jun 12 17:44:21 2015.
