 Gaussian 03, Revision E.01,
 Gaussian 03:  EM64T-G03RevE.01 11-Sep-2007

 ----------------------------------------------------
 # b3lyp/6-31+G(d,p) int=ultrafine pop=(ReadRadii,MK)
 ----------------------------------------------------

 ------------------------------------
 Ca3PO4_77.mol2c_plusQ.z51493.zip.xyz
 ------------------------------------
 Symbolic Z-matrix:
 Charge =  1 Multiplicity = 1

                         Standard orientation:
 ---------------------------------------------------------------------
 Center     Atomic     Atomic              Coordinates (Angstroms)
 Number     Number      Type              X           Y           Z
 ---------------------------------------------------------------------
    1          8             0        1.223133    0.835456    0.921930
    2          8             0        0.113766   -1.476840    0.921950
    3          8             0       -0.001182    0.000558   -1.711870
    4          8             0       -1.334477    0.640237    0.922870
    5         15             0        0.001817   -0.000858    1.718040
    6         20             0       -1.606803   -1.098286   -0.569280
    7         20             0       -0.148848    1.940580   -0.569290
    8         20             0        1.753793   -0.841415   -0.571910
 ---------------------------------------------------------------------

 SCF Done:  E(RB+HF-LYP) =  -2675.07103528     A.U. after    8 cycles

 The electronic state is 1-A.
 Alpha  occ. eigenvalues -- -145.49638-145.49632-145.49631 -77.25054 -19.21252
 Alpha  occ. eigenvalues --  -19.21251 -19.21161 -19.15934 -15.56471 -15.56467
 Alpha  occ. eigenvalues --  -15.56467 -12.69668 -12.69667 -12.69667 -12.69645
 Alpha  occ. eigenvalues --  -12.69645 -12.69643 -12.69597 -12.69597 -12.69597
 Alpha  occ. eigenvalues --   -6.70084  -4.86432  -4.86432  -4.85896  -1.93820
 Alpha  occ. eigenvalues --   -1.93736  -1.93735  -1.22374  -1.21693  -1.21691
 Alpha  occ. eigenvalues --   -1.21303  -1.21136  -1.21062  -1.21060  -1.20639
 Alpha  occ. eigenvalues --   -1.20638  -1.06753  -1.00374  -1.00327  -0.90932
 Alpha  occ. eigenvalues --   -0.62641  -0.50530  -0.50518  -0.47957  -0.43356
 Alpha  occ. eigenvalues --   -0.43352  -0.38354  -0.38327  -0.38175  -0.36131
 Alpha  occ. eigenvalues --   -0.36126  -0.34585  -0.30858
 Alpha virt. eigenvalues --   -0.19948  -0.18025  -0.18024  -0.12553  -0.12552
 Alpha virt. eigenvalues --   -0.10892  -0.09477  -0.09476  -0.08337  -0.07770
 Alpha virt. eigenvalues --   -0.06544  -0.06113  -0.06113  -0.04764  -0.04716

 Mulliken atomic charges:
              1
     1  O   -1.032353
     2  O   -1.032357
     3  O   -1.250964
     4  O   -1.031889
     5  P    1.097895
     6  Ca   1.416603
     7  Ca   1.416630
     8  Ca   1.416434
 Sum of Mulliken charges=   1.00000

 Dipole moment (field-independent basis, Debye):
    X=    -0.0115    Y=     0.0055    Z=    -8.2277  Tot=     8.2278
 Quadrupole moment (field-independent basis, Debye-Ang):
   XX=   -40.0396   YY=   -40.0318   ZZ=   -90.0152
   XY=     0.0050   XZ=    -0.0390   YZ=     0.0186

 Normal termination of Gaussian 03 at Fri Jun 12 17:45:33 2015.
