 Gaussian 03, Revision E.01,
 Gaussian 03:  EM64T-G03RevE.01 11-Sep-2007

 ----------------------------------------------------
 # b3lyp/6-31+G(d,p) int=ultrafine pop=(ReadRadii,MK)
 ----------------------------------------------------

 -------------------------------------
 Ca3PO4_174.mol2c_plusQ.z51181.zip.xyz
 -------------------------------------
 Symbolic Z-matrix:
 Charge =  1 Multiplicity = 1

                         Standard orientation:
 ---------------------------------------------------------------------
 Center     Atomic     Atomic              Coordinates (Angstroms)
 Number     Number      Type              X           Y           Z
 ---------------------------------------------------------------------
    1          8             0       -1.915108    0.000075   -1.241249
    2          8             0        1.037235    1.321048    0.102191
    3          8             0        1.037169   -1.321162    0.101451
    4          8             0       -2.665068    0.000117    0.136141
    5         15             0        0.933032   -0.000271    1.272541
    6         20             0       -1.215154    1.717454    0.019971
    7         20             0       -1.215282   -1.717376    0.020001
    8         20             0        2.732972    0.000095   -0.633789
 ---------------------------------------------------------------------

 SCF Done:  E(RB+HF-LYP) =  -2674.87506960     A.U. after   10 cycles

 The electronic state is 1-A.
 Alpha  occ. eigenvalues -- -145.54265-145.48001-145.47997 -77.19269 -19.21432
 Alpha  occ. eigenvalues --  -19.21416 -19.21070 -19.21062 -15.61065 -15.54866
 Alpha  occ. eigenvalues --  -15.54864 -12.74287 -12.74219 -12.74219 -12.68106
 Alpha  occ. eigenvalues --  -12.68103 -12.68066 -12.68064 -12.67948 -12.67945
 Alpha  occ. eigenvalues --   -6.65469  -4.81967  -4.81710  -4.81049  -1.98039
 Alpha  occ. eigenvalues --   -1.92135  -1.92082  -1.25714  -1.25442  -1.25205
 Alpha  occ. eigenvalues --   -1.20876  -1.19868  -1.19780  -1.19554  -1.19549
 Alpha  occ. eigenvalues --   -1.19048  -1.03835  -1.02411  -0.98926  -0.84873
 Alpha  occ. eigenvalues --   -0.62497  -0.47222  -0.46775  -0.45021  -0.44341
 Alpha  occ. eigenvalues --   -0.43466  -0.41720  -0.41645  -0.37153  -0.36893
 Alpha  occ. eigenvalues --   -0.31997  -0.30083  -0.25938
 Alpha virt. eigenvalues --   -0.21892  -0.16793  -0.16514  -0.13552  -0.12576
 Alpha virt. eigenvalues --   -0.11118  -0.09706  -0.09305  -0.08112  -0.08038
 Alpha virt. eigenvalues --   -0.07025  -0.06879  -0.06369  -0.05857  -0.05178

 Mulliken atomic charges:
              1
     1  O   -0.645185
     2  O   -0.822164
     3  O   -0.822008
     4  O   -0.659503
     5  P   -0.354670
     6  Ca   1.435604
     7  Ca   1.435502
     8  Ca   1.432424
 Sum of Mulliken charges=   1.00000

 Dipole moment (field-independent basis, Debye):
    X=     6.8744    Y=     0.0012    Z=    -3.7341  Tot=     7.8231
 Quadrupole moment (field-independent basis, Debye-Ang):
   XX=   -44.9413   YY=   -37.8705   ZZ=   -77.2490
   XY=     0.0046   XZ=   -23.2318   YZ=    -0.0034

 Normal termination of Gaussian 03 at Fri Jun 12 17:39:53 2015.
