 Gaussian 03, Revision E.01,
 Gaussian 03:  EM64T-G03RevE.01 11-Sep-2007

 ----------------------------------------------------
 # b3lyp/6-31+G(d,p) int=ultrafine pop=(ReadRadii,MK)
 ----------------------------------------------------

 -----------------------------------
 Ca3PO4_11.mol2_plusQ.z51121.zip.xyz
 -----------------------------------
 Symbolic Z-matrix:
 Charge =  1 Multiplicity = 1

                         Standard orientation:
 ---------------------------------------------------------------------
 Center     Atomic     Atomic              Coordinates (Angstroms)
 Number     Number      Type              X           Y           Z
 ---------------------------------------------------------------------
    1          8             0        0.469375   -1.404167    0.922571
    2          8             0        0.983062    1.108756    0.921461
    3          8             0       -1.449804    0.297219    0.923161
    4          8             0       -0.001150   -0.001049   -1.712709
    5         15             0        0.001261    0.000619    1.718521
    6         20             0       -1.290984   -1.455990   -0.568869
    7         20             0        1.905759   -0.389672   -0.571249
    8         20             0       -0.616314    1.844894   -0.570569
 ---------------------------------------------------------------------

 SCF Done:  E(RB+HF-LYP) =  -2675.07104904     A.U. after    8 cycles

 The electronic state is 1-A.
 Alpha  occ. eigenvalues -- -145.49641-145.49634-145.49632 -77.25065 -19.21235
 Alpha  occ. eigenvalues --  -19.21235 -19.21213 -19.15948 -15.56476 -15.56470
 Alpha  occ. eigenvalues --  -15.56467 -12.69674 -12.69668 -12.69667 -12.69651
 Alpha  occ. eigenvalues --  -12.69646 -12.69644 -12.69604 -12.69598 -12.69597
 Alpha  occ. eigenvalues --   -6.70094  -4.86443  -4.86443  -4.85907  -1.93824
 Alpha  occ. eigenvalues --   -1.93741  -1.93737  -1.22380  -1.21698  -1.21695
 Alpha  occ. eigenvalues --   -1.21307  -1.21139  -1.21066  -1.21063  -1.20644
 Alpha  occ. eigenvalues --   -1.20641  -1.06759  -1.00363  -1.00349  -0.90946
 Alpha  occ. eigenvalues --   -0.62650  -0.50533  -0.50528  -0.47964  -0.43361
 Alpha  occ. eigenvalues --   -0.43359  -0.38350  -0.38341  -0.38181  -0.36142
 Alpha  occ. eigenvalues --   -0.36140  -0.34600  -0.30872
 Alpha virt. eigenvalues --   -0.19950  -0.18026  -0.18024  -0.12556  -0.12553
 Alpha virt. eigenvalues --   -0.10893  -0.09478  -0.09476  -0.08337  -0.07772
 Alpha virt. eigenvalues --   -0.06545  -0.06114  -0.06113  -0.04766  -0.04719

 Mulliken atomic charges:
              1
     1  O   -1.032422
     2  O   -1.032298
     3  O   -1.032515
     4  O   -1.251013
     5  P    1.098342
     6  Ca   1.416651
     7  Ca   1.416710
     8  Ca   1.416544
 Sum of Mulliken charges=   1.00000

 Dipole moment (field-independent basis, Debye):
    X=    -0.0098    Y=    -0.0053    Z=    -8.2260  Tot=     8.2260
 Quadrupole moment (field-independent basis, Debye-Ang):
   XX=   -40.0341   YY=   -40.0594   ZZ=   -90.0161
   XY=    -0.0002   XZ=    -0.0324   YZ=    -0.0250

 Normal termination of Gaussian 03 at Fri Jun 12 17:36:27 2015.
