 Gaussian 03, Revision E.01,
 Gaussian 03:  EM64T-G03RevE.01 11-Sep-2007

 ----------------------------------------------------
 # b3lyp/6-31+G(d,p) int=ultrafine pop=(ReadRadii,MK)
 ----------------------------------------------------

 ------------------------------------
 Ca3PO4_188.mol2_plusQ.z51196.zip.xyz
 ------------------------------------
 Symbolic Z-matrix:
 Charge =  1 Multiplicity = 1

                         Standard orientation:
 ---------------------------------------------------------------------
 Center     Atomic     Atomic              Coordinates (Angstroms)
 Number     Number      Type              X           Y           Z
 ---------------------------------------------------------------------
    1          8             0       -0.398188   -1.425462    0.924011
    2          8             0        1.435347    0.369060    0.921291
    3          8             0       -1.034743    1.059060    0.922381
    4          8             0       -0.001545   -0.001594   -1.711669
    5         15             0        0.001424    0.001488    1.718031
    6         20             0       -1.885993   -0.482389   -0.568759
    7         20             0        0.524676    1.872886   -0.571899
    8         20             0        1.359901   -1.392038   -0.570269
 ---------------------------------------------------------------------

 SCF Done:  E(RB+HF-LYP) =  -2675.07105987     A.U. after    8 cycles

 The electronic state is 1-A.
 Alpha  occ. eigenvalues -- -145.49647-145.49640-145.49629 -77.25056 -19.21237
 Alpha  occ. eigenvalues --  -19.21222 -19.21217 -19.15946 -15.56480 -15.56475
 Alpha  occ. eigenvalues --  -15.56465 -12.69678 -12.69674 -12.69664 -12.69656
 Alpha  occ. eigenvalues --  -12.69652 -12.69641 -12.69609 -12.69604 -12.69594
 Alpha  occ. eigenvalues --   -6.70086  -4.86434  -4.86434  -4.85898  -1.93826
 Alpha  occ. eigenvalues --   -1.93744  -1.93737  -1.22378  -1.21698  -1.21695
 Alpha  occ. eigenvalues --   -1.21308  -1.21141  -1.21068  -1.21064  -1.20647
 Alpha  occ. eigenvalues --   -1.20641  -1.06759  -1.00359  -1.00352  -0.90945
 Alpha  occ. eigenvalues --   -0.62641  -0.50528  -0.50525  -0.47960  -0.43358
 Alpha  occ. eigenvalues --   -0.43356  -0.38347  -0.38342  -0.38177  -0.36141
 Alpha  occ. eigenvalues --   -0.36139  -0.34595  -0.30857
 Alpha virt. eigenvalues --   -0.19951  -0.18030  -0.18026  -0.12556  -0.12555
 Alpha virt. eigenvalues --   -0.10895  -0.09480  -0.09477  -0.08339  -0.07773
 Alpha virt. eigenvalues --   -0.06546  -0.06115  -0.06114  -0.04765  -0.04716

 Mulliken atomic charges:
              1
     1  O   -1.032076
     2  O   -1.032167
     3  O   -1.032042
     4  O   -1.251196
     5  P    1.097782
     6  Ca   1.416726
     7  Ca   1.416297
     8  Ca   1.416677
 Sum of Mulliken charges=   1.00000

 Dipole moment (field-independent basis, Debye):
    X=    -0.0093    Y=    -0.0080    Z=    -8.2354  Tot=     8.2354
 Quadrupole moment (field-independent basis, Debye-Ang):
   XX=   -40.0191   YY=   -40.0472   ZZ=   -90.0123
   XY=    -0.0121   XZ=    -0.0387   YZ=    -0.0342

 Normal termination of Gaussian 03 at Fri Jun 12 17:40:25 2015.
