 Gaussian 03, Revision E.01,
 Gaussian 03:  EM64T-G03RevE.01 11-Sep-2007

 ----------------------------------------------------
 # b3lyp/6-31+G(d,p) int=ultrafine pop=(ReadRadii,MK)
 ----------------------------------------------------

 ------------------------------------
 Ca3PO4_79.mol2c_plusQ.z51495.zip.xyz
 ------------------------------------
 Symbolic Z-matrix:
 Charge =  1 Multiplicity = 1

                         Standard orientation:
 ---------------------------------------------------------------------
 Center     Atomic     Atomic              Coordinates (Angstroms)
 Number     Number      Type              X           Y           Z
 ---------------------------------------------------------------------
    1          8             0       -1.981779   -0.843273   -0.191911
    2          8             0        0.339039    0.351371    0.023689
    3          8             0       -2.722521    0.384905   -0.711361
    4          8             0        0.164024   -2.167369   -0.472011
    5         15             0       -0.532389   -0.904091   -1.089691
    6         20             0        1.932386    1.918074   -0.559821
    7         20             0        1.780032   -1.395216    0.843499
    8         20             0       -1.632632    1.064957    1.074229
 ---------------------------------------------------------------------

 SCF Done:  E(RB+HF-LYP) =  -2674.82625819     A.U. after   14 cycles

 The electronic state is 1-A.
 Alpha  occ. eigenvalues -- -145.54044-145.53725-145.53421 -77.27236 -19.29470
 Alpha  occ. eigenvalues --  -19.25671 -19.23785 -19.22607 -15.60970 -15.60708
 Alpha  occ. eigenvalues --  -15.60292 -12.74201 -12.74139 -12.74057 -12.73897
 Alpha  occ. eigenvalues --  -12.73887 -12.73789 -12.73520 -12.73456 -12.73404
 Alpha  occ. eigenvalues --   -6.72459  -4.88874  -4.88764  -4.88169  -1.98113
 Alpha  occ. eigenvalues --   -1.97798  -1.97486  -1.25845  -1.25748  -1.25532
 Alpha  occ. eigenvalues --   -1.25357  -1.25261  -1.25145  -1.25107  -1.24906
 Alpha  occ. eigenvalues --   -1.24637  -1.14252  -1.07075  -1.02649  -0.91343
 Alpha  occ. eigenvalues --   -0.65769  -0.54690  -0.53262  -0.52243  -0.48457
 Alpha  occ. eigenvalues --   -0.47088  -0.45120  -0.42395  -0.41087  -0.36087
 Alpha  occ. eigenvalues --   -0.34401  -0.34031  -0.28559
 Alpha virt. eigenvalues --   -0.22527  -0.22005  -0.16773  -0.16141  -0.15572
 Alpha virt. eigenvalues --   -0.13846  -0.12565  -0.10695  -0.10526  -0.09497
 Alpha virt. eigenvalues --   -0.09135  -0.08822  -0.08099  -0.07534  -0.06679

 Mulliken atomic charges:
              1
     1  O   -0.441048
     2  O   -1.156273
     3  O   -0.542643
     4  O   -0.830722
     5  P    1.174150
     6  Ca   0.548006
     7  Ca   0.923098
     8  Ca   1.325431
 Sum of Mulliken charges=   1.00000

 Dipole moment (field-independent basis, Debye):
    X=     7.3541    Y=     6.2461    Z=     8.5474  Tot=    12.8901
 Quadrupole moment (field-independent basis, Debye-Ang):
   XX=   -67.6415   YY=   -59.8383   ZZ=   -67.9035
   XY=   -14.6667   XZ=   -16.9292   YZ=    -7.7080

 Normal termination of Gaussian 03 at Fri Jun 12 17:46:25 2015.
