 Gaussian 03, Revision E.01,
 Gaussian 03:  EM64T-G03RevE.01 11-Sep-2007

 ----------------------------------------------------
 # b3lyp/6-31+G(d,p) int=ultrafine pop=(ReadRadii,MK)
 ----------------------------------------------------

 ------------------------------------
 Ca3PO4_18.mol2c_plusQ.z51198.zip.xyz
 ------------------------------------
 Symbolic Z-matrix:
 Charge =  1 Multiplicity = 1

                         Standard orientation:
 ---------------------------------------------------------------------
 Center     Atomic     Atomic              Coordinates (Angstroms)
 Number     Number      Type              X           Y           Z
 ---------------------------------------------------------------------
    1          8             0       -2.240290   -0.003914    1.330182
    2          8             0       -0.586012    1.253708   -0.103278
    3          8             0       -0.587789   -1.253502   -0.112518
    4          8             0        2.691920    0.000223   -0.333498
    5         15             0       -0.692520   -0.004712    1.035252
    6         20             0        1.623042   -1.817949   -0.077418
    7         20             0        1.624257    1.818631   -0.074568
    8         20             0       -2.439040    0.004245   -0.936808
 ---------------------------------------------------------------------

 SCF Done:  E(RB+HF-LYP) =  -2674.99967619     A.U. after    8 cycles

 The electronic state is 1-A.
 Alpha  occ. eigenvalues -- -145.52894-145.48527-145.48525 -77.24501 -19.21571
 Alpha  occ. eigenvalues --  -19.21549 -19.18903 -19.12203 -15.59691 -15.55430
 Alpha  occ. eigenvalues --  -15.55428 -12.72873 -12.72869 -12.72857 -12.68682
 Alpha  occ. eigenvalues --  -12.68680 -12.68613 -12.68611 -12.68489 -12.68486
 Alpha  occ. eigenvalues --   -6.69818  -4.86197  -4.86120  -4.85699  -1.96735
 Alpha  occ. eigenvalues --   -1.92695  -1.92669  -1.24712  -1.23997  -1.23961
 Alpha  occ. eigenvalues --   -1.20604  -1.20533  -1.20418  -1.20162  -1.19804
 Alpha  occ. eigenvalues --   -1.19312  -1.06955  -0.99975  -0.99933  -0.86587
 Alpha  occ. eigenvalues --   -0.61879  -0.49717  -0.49548  -0.48420  -0.42895
 Alpha  occ. eigenvalues --   -0.42360  -0.38149  -0.37913  -0.34574  -0.32839
 Alpha  occ. eigenvalues --   -0.32556  -0.30678  -0.30274
 Alpha virt. eigenvalues --   -0.20426  -0.18314  -0.17404  -0.12511  -0.11993
 Alpha virt. eigenvalues --   -0.10388  -0.10053  -0.08965  -0.08370  -0.08014
 Alpha virt. eigenvalues --   -0.07400  -0.06926  -0.06471  -0.05552  -0.05313

 Mulliken atomic charges:
              1
     1  O   -0.880427
     2  O   -0.958214
     3  O   -0.956865
     4  O   -1.183873
     5  P    0.750323
     6  Ca   1.424184
     7  Ca   1.424781
     8  Ca   1.380091
 Sum of Mulliken charges=   1.00000

 Dipole moment (field-independent basis, Debye):
    X=    -1.4919    Y=     0.0384    Z=    -7.5068  Tot=     7.6537
 Quadrupole moment (field-independent basis, Debye-Ang):
   XX=   -53.1817   YY=   -32.2828   ZZ=   -70.0491
   XY=    -0.0819   XZ=    28.1378   YZ=    -0.0170

 Normal termination of Gaussian 03 at Fri Jun 12 17:40:28 2015.
