 Gaussian 03, Revision E.01,
 Gaussian 03:  EM64T-G03RevE.01 11-Sep-2007

 ----------------------------------------------------
 # b3lyp/6-31+G(d,p) int=ultrafine pop=(ReadRadii,MK)
 ----------------------------------------------------

 -------------------------------------
 Ca3PO4_218.mol2c_plusQ.z51429.zip.xyz
 -------------------------------------
 Symbolic Z-matrix:
 Charge =  1 Multiplicity = 1

                         Standard orientation:
 ---------------------------------------------------------------------
 Center     Atomic     Atomic              Coordinates (Angstroms)
 Number     Number      Type              X           Y           Z
 ---------------------------------------------------------------------
    1          8             0        2.742570   -0.000258   -1.236300
    2          8             0        5.114190    0.000113    0.000050
    3          8             0        2.742570    0.000222    1.236420
    4          8             0       -4.021330    0.000069   -0.000210
    5         15             0        3.644610    0.000053    0.000060
    6         20             0        0.721620   -0.000178    0.000040
    7         20             0       -3.043100    1.858800   -0.000080
    8         20             0       -3.043179   -1.858720    0.000010
 ---------------------------------------------------------------------

 SCF Done:  E(RB+HF-LYP) =  -2674.88554680     A.U. after    8 cycles

 The electronic state is 1-A.
 Alpha  occ. eigenvalues -- -145.53493-145.53492-145.52942 -77.32185 -19.26417
 Alpha  occ. eigenvalues --  -19.26417 -19.25091 -19.16161 -15.60421 -15.60420
 Alpha  occ. eigenvalues --  -15.59932 -12.73635 -12.73635 -12.73616 -12.73615
 Alpha  occ. eigenvalues --  -12.73488 -12.73487 -12.73171 -12.73105 -12.72996
 Alpha  occ. eigenvalues --   -6.77548  -4.94142  -4.93662  -4.93618  -1.97538
 Alpha  occ. eigenvalues --   -1.97516  -1.97129  -1.25154  -1.25130  -1.25065
 Alpha  occ. eigenvalues --   -1.24947  -1.24867  -1.24683  -1.24632  -1.24531
 Alpha  occ. eigenvalues --   -1.24104  -1.15258  -1.07921  -1.07463  -0.90539
 Alpha  occ. eigenvalues --   -0.63136  -0.54872  -0.53482  -0.53130  -0.47440
 Alpha  occ. eigenvalues --   -0.43824  -0.43650  -0.42808  -0.39901  -0.36769
 Alpha  occ. eigenvalues --   -0.35480  -0.34667  -0.30650
 Alpha virt. eigenvalues --   -0.23738  -0.20916  -0.17130  -0.16236  -0.16102
 Alpha virt. eigenvalues --   -0.13755  -0.13246  -0.11502  -0.10771  -0.10403
 Alpha virt. eigenvalues --   -0.09987  -0.09247  -0.09110  -0.06648  -0.06125

 Mulliken atomic charges:
              1
     1  O   -0.668263
     2  O   -0.612228
     3  O   -0.668259
     4  O   -1.022071
     5  P    1.112546
     6  Ca   0.623622
     7  Ca   1.117303
     8  Ca   1.117350
 Sum of Mulliken charges=   1.00000

 Dipole moment (field-independent basis, Debye):
    X=   -15.2875    Y=     0.0000    Z=     0.0004  Tot=    15.2875
 Quadrupole moment (field-independent basis, Debye-Ang):
   XX=   -86.0313   YY=   -30.9858   ZZ=   -85.9296
   XY=    -0.0011   XZ=    -0.0030   YZ=    -0.0031

 Normal termination of Gaussian 03 at Fri Jun 12 17:41:50 2015.
