 Gaussian 03, Revision E.01,
 Gaussian 03:  EM64T-G03RevE.01 11-Sep-2007

 ----------------------------------------------------
 # b3lyp/6-31+G(d,p) int=ultrafine pop=(ReadRadii,MK)
 ----------------------------------------------------

 -----------------------------------
 Ca3PO4_6.mol2c_plusQ.z51485.zip.xyz
 -----------------------------------
 Symbolic Z-matrix:
 Charge =  1 Multiplicity = 1

                         Standard orientation:
 ---------------------------------------------------------------------
 Center     Atomic     Atomic              Coordinates (Angstroms)
 Number     Number      Type              X           Y           Z
 ---------------------------------------------------------------------
    1          8             0        0.210682   -1.467000    0.605771
    2          8             0        0.889889    0.988311    0.324491
    3          8             0       -1.425860    0.409878    0.853111
    4          8             0        2.385740    0.920902    0.410981
    5         15             0        0.002131   -0.089180    1.485421
    6         20             0        1.943871   -0.900388   -0.822859
    7         20             0       -1.875838   -1.463392   -0.488939
    8         20             0       -0.893812    2.089829   -0.680009
 ---------------------------------------------------------------------

 SCF Done:  E(RB+HF-LYP) =  -2674.86109879     A.U. after   12 cycles

 The electronic state is 1-A.
 Alpha  occ. eigenvalues -- -145.54058-145.52990-145.52973 -77.28680 -19.31264
 Alpha  occ. eigenvalues --  -19.25032 -19.24960 -19.24870 -15.60935 -15.59911
 Alpha  occ. eigenvalues --  -15.59845 -12.74145 -12.74109 -12.74052 -12.73119
 Alpha  occ. eigenvalues --  -12.73081 -12.73075 -12.73016 -12.73007 -12.72963
 Alpha  occ. eigenvalues --   -6.73841  -4.90268  -4.90136  -4.89552  -1.97970
 Alpha  occ. eigenvalues --   -1.97026  -1.96973  -1.25815  -1.25392  -1.25351
 Alpha  occ. eigenvalues --   -1.24927  -1.24611  -1.24515  -1.24399  -1.24390
 Alpha  occ. eigenvalues --   -1.24132  -1.15561  -1.09451  -1.04731  -0.92311
 Alpha  occ. eigenvalues --   -0.67259  -0.56998  -0.55383  -0.53936  -0.51270
 Alpha  occ. eigenvalues --   -0.48959  -0.45760  -0.44017  -0.41723  -0.37944
 Alpha  occ. eigenvalues --   -0.35432  -0.34908  -0.27145
 Alpha virt. eigenvalues --   -0.21748  -0.20864  -0.16384  -0.14790  -0.13883
 Alpha virt. eigenvalues --   -0.12408  -0.11954  -0.11152  -0.11013  -0.09937
 Alpha virt. eigenvalues --   -0.09244  -0.07925  -0.07403  -0.07029  -0.06546

 Mulliken atomic charges:
              1
     1  O   -0.922281
     2  O   -0.557443
     3  O   -0.847253
     4  O   -0.566290
     5  P    0.957769
     6  Ca   1.221390
     7  Ca   0.666720
     8  Ca   1.047388
 Sum of Mulliken charges=   1.00000

 Dipole moment (field-independent basis, Debye):
    X=    -2.6758    Y=    -2.0490    Z=    -6.7156  Tot=     7.5138
 Quadrupole moment (field-independent basis, Debye-Ang):
   XX=   -56.1121   YY=   -48.0257   ZZ=   -86.9785
   XY=   -10.5485   XZ=   -10.0920   YZ=    -0.2490

 Normal termination of Gaussian 03 at Fri Jun 12 17:45:25 2015.
