 Gaussian 03, Revision E.01,
 Gaussian 03:  EM64T-G03RevE.01 11-Sep-2007

 ----------------------------------------------------
 # b3lyp/6-31+G(d,p) int=ultrafine pop=(ReadRadii,MK)
 ----------------------------------------------------

 -------------------------------------
 Ca3PO4_171.mol2c_plusQ.z51178.zip.xyz
 -------------------------------------
 Symbolic Z-matrix:
 Charge =  1 Multiplicity = 1

                         Standard orientation:
 ---------------------------------------------------------------------
 Center     Atomic     Atomic              Coordinates (Angstroms)
 Number     Number      Type              X           Y           Z
 ---------------------------------------------------------------------
    1          8             0       -0.818943    1.233325    0.922639
    2          8             0        1.477582    0.091561    0.922589
    3          8             0       -0.659892   -1.326176    0.921949
    4          8             0        0.000930    0.000488   -1.712031
    5         15             0       -0.000961   -0.000769    1.718129
    6         20             0        0.866868    1.742369   -0.569211
    7         20             0       -1.942005   -0.120357   -0.571171
    8         20             0        1.075987   -1.621115   -0.570271
 ---------------------------------------------------------------------

 SCF Done:  E(RB+HF-LYP) =  -2675.07103673     A.U. after    8 cycles

 The electronic state is 1-A.
 Alpha  occ. eigenvalues -- -145.49645-145.49634-145.49629 -77.25053 -19.21245
 Alpha  occ. eigenvalues --  -19.21239 -19.21183 -19.15941 -15.56479 -15.56469
 Alpha  occ. eigenvalues --  -15.56465 -12.69678 -12.69667 -12.69663 -12.69655
 Alpha  occ. eigenvalues --  -12.69645 -12.69641 -12.69608 -12.69598 -12.69594
 Alpha  occ. eigenvalues --   -6.70083  -4.86432  -4.86432  -4.85896  -1.93823
 Alpha  occ. eigenvalues --   -1.93742  -1.93734  -1.22377  -1.21697  -1.21692
 Alpha  occ. eigenvalues --   -1.21306  -1.21139  -1.21066  -1.21061  -1.20645
 Alpha  occ. eigenvalues --   -1.20638  -1.06759  -1.00369  -1.00340  -0.90939
 Alpha  occ. eigenvalues --   -0.62641  -0.50531  -0.50523  -0.47961  -0.43359
 Alpha  occ. eigenvalues --   -0.43355  -0.38350  -0.38334  -0.38176  -0.36135
 Alpha  occ. eigenvalues --   -0.36133  -0.34590  -0.30858
 Alpha virt. eigenvalues --   -0.19949  -0.18028  -0.18024  -0.12556  -0.12552
 Alpha virt. eigenvalues --   -0.10893  -0.09478  -0.09476  -0.08338  -0.07772
 Alpha virt. eigenvalues --   -0.06545  -0.06114  -0.06113  -0.04764  -0.04715

 Mulliken atomic charges:
              1
     1  O   -1.032396
     2  O   -1.032030
     3  O   -1.032331
     4  O   -1.251034
     5  P    1.098102
     6  Ca   1.416531
     7  Ca   1.416669
     8  Ca   1.416489
 Sum of Mulliken charges=   1.00000

 Dipole moment (field-independent basis, Debye):
    X=     0.0030    Y=     0.0063    Z=    -8.2293  Tot=     8.2293
 Quadrupole moment (field-independent basis, Debye-Ang):
   XX=   -40.0279   YY=   -40.0404   ZZ=   -90.0180
   XY=    -0.0024   XZ=     0.0269   YZ=     0.0165

 Normal termination of Gaussian 03 at Fri Jun 12 17:39:30 2015.
