 Gaussian 03, Revision E.01,
 Gaussian 03:  EM64T-G03RevE.01 11-Sep-2007

 ----------------------------------------------------
 # b3lyp/6-31+G(d,p) int=ultrafine pop=(ReadRadii,MK)
 ----------------------------------------------------

 -------------------------------------
 Ca3PO4_124.mol2c_plusQ.z51126.zip.xyz
 -------------------------------------
 Symbolic Z-matrix:
 Charge =  1 Multiplicity = 1

                         Standard orientation:
 ---------------------------------------------------------------------
 Center     Atomic     Atomic              Coordinates (Angstroms)
 Number     Number      Type              X           Y           Z
 ---------------------------------------------------------------------
    1          8             0       -0.011115    1.510464    1.363599
    2          8             0        1.315066   -0.751193    1.361189
    3          8             0       -1.306657   -0.768476    1.360499
    4          8             0        0.000029   -0.000499   -0.687771
    5         15             0       -0.000662   -0.002789    1.065009
    6         20             0       -2.051292   -1.206676   -0.721311
    7         20             0       -0.022487    2.379456   -0.716531
    8         20             0        2.075347   -1.166807   -0.719921
 ---------------------------------------------------------------------

 SCF Done:  E(RB+HF-LYP) =  -2675.01212555     A.U. after    9 cycles

 The electronic state is 1-A.
 Alpha  occ. eigenvalues -- -145.53755-145.53750-145.53687 -77.32328 -19.26085
 Alpha  occ. eigenvalues --  -19.22408 -19.22407 -19.22376 -15.60648 -15.60644
 Alpha  occ. eigenvalues --  -15.60582 -12.73875 -12.73870 -12.73810 -12.73809
 Alpha  occ. eigenvalues --  -12.73805 -12.73755 -12.73751 -12.73744 -12.73689
 Alpha  occ. eigenvalues --   -6.76699  -4.93242  -4.92943  -4.92943  -1.97708
 Alpha  occ. eigenvalues --   -1.97701  -1.97646  -1.25657  -1.25326  -1.25308
 Alpha  occ. eigenvalues --   -1.25250  -1.25037  -1.25007  -1.24987  -1.24921
 Alpha  occ. eigenvalues --   -1.24877  -1.13307  -1.04692  -1.04678  -1.04459
 Alpha  occ. eigenvalues --   -0.63478  -0.55551  -0.53622  -0.53614  -0.47944
 Alpha  occ. eigenvalues --   -0.47934  -0.43445  -0.43442  -0.42231  -0.40379
 Alpha  occ. eigenvalues --   -0.40363  -0.37479  -0.26992
 Alpha virt. eigenvalues --   -0.22187  -0.22158  -0.15985  -0.15984  -0.14864
 Alpha virt. eigenvalues --   -0.12675  -0.11784  -0.11762  -0.11230  -0.08622
 Alpha virt. eigenvalues --   -0.08605  -0.07721  -0.05591  -0.05585  -0.05429

 Mulliken atomic charges:
              1
     1  O   -0.773426
     2  O   -0.773308
     3  O   -0.773373
     4  O   -1.112397
     5  P    1.353307
     6  Ca   1.025802
     7  Ca   1.028258
     8  Ca   1.025137
 Sum of Mulliken charges=   1.00000

 Dipole moment (field-independent basis, Debye):
    X=    -0.0008    Y=     0.0825    Z=   -10.6839  Tot=    10.6842
 Quadrupole moment (field-independent basis, Debye-Ang):
   XX=   -46.5258   YY=   -46.5250   ZZ=   -93.5620
   XY=     0.0056   XZ=     0.0342   YZ=     0.0030

 Normal termination of Gaussian 03 at Fri Jun 12 17:36:36 2015.
