 Gaussian 03, Revision E.01,
 Gaussian 03:  EM64T-G03RevE.01 11-Sep-2007

 ----------------------------------------------------
 # b3lyp/6-31+G(d,p) int=ultrafine pop=(ReadRadii,MK)
 ----------------------------------------------------

 -------------------------------------
 Ca3PO4_217.mol2c_plusQ.z51428.zip.xyz
 -------------------------------------
 Symbolic Z-matrix:
 Charge =  1 Multiplicity = 1

                         Standard orientation:
 ---------------------------------------------------------------------
 Center     Atomic     Atomic              Coordinates (Angstroms)
 Number     Number      Type              X           Y           Z
 ---------------------------------------------------------------------
    1          8             0        2.950801    0.670380    0.000029
    2          8             0        1.666882   -1.499850   -0.000001
    3          8             0       -0.830699    0.944459   -0.000071
    4          8             0       -2.841498   -1.413912    0.000029
    5         15             0        3.073682   -0.877370    0.000079
    6         20             0       -3.085339    0.692578    0.000069
    7         20             0       -0.673878   -1.459261   -0.000081
    8         20             0        1.075761    1.944280   -0.000041
 ---------------------------------------------------------------------

 SCF Done:  E(RB+HF-LYP) =  -2675.00579564     A.U. after   10 cycles

 The electronic state is 1-A.
 Alpha  occ. eigenvalues -- -145.53271-145.47074-145.44490 -77.29409 -19.27578
 Alpha  occ. eigenvalues --  -19.27202 -19.17715 -19.10351 -15.60164 -15.53973
 Alpha  occ. eigenvalues --  -15.51448 -12.73420 -12.73368 -12.73206 -12.67213
 Alpha  occ. eigenvalues --  -12.67131 -12.67052 -12.64724 -12.64633 -12.64479
 Alpha  occ. eigenvalues --   -6.74958  -4.91398  -4.91174  -4.90738  -1.97363
 Alpha  occ. eigenvalues --   -1.91269  -1.88898  -1.25217  -1.25066  -1.24234
 Alpha  occ. eigenvalues --   -1.19136  -1.18809  -1.18228  -1.17003  -1.16392
 Alpha  occ. eigenvalues --   -1.16279  -1.13247  -1.07848  -0.92328  -0.84316
 Alpha  occ. eigenvalues --   -0.66982  -0.56445  -0.52403  -0.52188  -0.45143
 Alpha  occ. eigenvalues --   -0.43252  -0.40559  -0.38450  -0.37476  -0.36315
 Alpha  occ. eigenvalues --   -0.29849  -0.28439  -0.28141
 Alpha virt. eigenvalues --   -0.21373  -0.19382  -0.18289  -0.14058  -0.13457
 Alpha virt. eigenvalues --   -0.11733  -0.10632  -0.10446  -0.08688  -0.08515
 Alpha virt. eigenvalues --   -0.07774  -0.07164  -0.06437  -0.06132  -0.05561

 Mulliken atomic charges:
              1
     1  O   -0.719989
     2  O   -0.683418
     3  O   -1.345647
     4  O   -1.119785
     5  P    0.671047
     6  Ca   1.326321
     7  Ca   1.347281
     8  Ca   1.524191
 Sum of Mulliken charges=   1.00000

 Dipole moment (field-independent basis, Debye):
    X=    -0.3854    Y=    11.4158    Z=    -0.0001  Tot=    11.4223
 Quadrupole moment (field-independent basis, Debye-Ang):
   XX=   -59.0491   YY=   -46.9134   ZZ=   -69.1137
   XY=   -17.5410   XZ=    -0.0012   YZ=     0.0013

 Normal termination of Gaussian 03 at Fri Jun 12 17:42:10 2015.
