 Gaussian 03, Revision E.01,
 Gaussian 03:  EM64T-G03RevE.01 11-Sep-2007

 ----------------------------------------------------
 # b3lyp/6-31+G(d,p) int=ultrafine pop=(ReadRadii,MK)
 ----------------------------------------------------

 --------------------------------------
 Ca3PO4_210.mol2c_plusQc.z51695.zip.xyz
 --------------------------------------
 Symbolic Z-matrix:
 Charge =  1 Multiplicity = 1

                         Standard orientation:
 ---------------------------------------------------------------------
 Center     Atomic     Atomic              Coordinates (Angstroms)
 Number     Number      Type              X           Y           Z
 ---------------------------------------------------------------------
    1          8             0        2.946119    0.670113   -0.001699
    2          8             0       -0.831101    0.945782   -0.000089
    3          8             0       -2.839190   -1.416118    0.000071
    4          8             0        1.668600   -1.504107    0.001461
    5         15             0        3.073389   -0.877327    0.001521
    6         20             0       -3.085561    0.690042    0.001021
    7         20             0        1.074249    1.947953   -0.000379
    8         20             0       -0.671500   -1.458268   -0.001679
 ---------------------------------------------------------------------

 SCF Done:  E(RB+HF-LYP) =  -2675.00579139     A.U. after   10 cycles

 The electronic state is 1-A.
 Alpha  occ. eigenvalues -- -145.53282-145.47076-145.44482 -77.29403 -19.27575
 Alpha  occ. eigenvalues --  -19.27192 -19.17722 -19.10351 -15.60174 -15.53975
 Alpha  occ. eigenvalues --  -15.51440 -12.73430 -12.73378 -12.73217 -12.67215
 Alpha  occ. eigenvalues --  -12.67133 -12.67054 -12.64716 -12.64626 -12.64471
 Alpha  occ. eigenvalues --   -6.74951  -4.91392  -4.91168  -4.90731  -1.97373
 Alpha  occ. eigenvalues --   -1.91271  -1.88892  -1.25226  -1.25073  -1.24243
 Alpha  occ. eigenvalues --   -1.19137  -1.18811  -1.18229  -1.16997  -1.16386
 Alpha  occ. eigenvalues --   -1.16275  -1.13238  -1.07843  -0.92332  -0.84316
 Alpha  occ. eigenvalues --   -0.66979  -0.56444  -0.52394  -0.52181  -0.45139
 Alpha  occ. eigenvalues --   -0.43244  -0.40551  -0.38457  -0.37480  -0.36318
 Alpha  occ. eigenvalues --   -0.29848  -0.28439  -0.28143
 Alpha virt. eigenvalues --   -0.21383  -0.19376  -0.18290  -0.14050  -0.13462
 Alpha virt. eigenvalues --   -0.11742  -0.10628  -0.10447  -0.08683  -0.08514
 Alpha virt. eigenvalues --   -0.07773  -0.07165  -0.06435  -0.06126  -0.05565

 Mulliken atomic charges:
              1
     1  O   -0.720512
     2  O   -1.345821
     3  O   -1.119649
     4  O   -0.683400
     5  P    0.671427
     6  Ca   1.326286
     7  Ca   1.524475
     8  Ca   1.347193
 Sum of Mulliken charges=   1.00000

 Dipole moment (field-independent basis, Debye):
    X=    -0.3875    Y=    11.4478    Z=    -0.0031  Tot=    11.4543
 Quadrupole moment (field-independent basis, Debye-Ang):
   XX=   -58.9589   YY=   -46.9363   ZZ=   -69.1140
   XY=   -17.4842   XZ=    -0.0059   YZ=     0.0325

 Normal termination of Gaussian 03 at Fri Jun 12 17:41:52 2015.
