 Gaussian 03, Revision E.01,
 Gaussian 03:  EM64T-G03RevE.01 11-Sep-2007

 ----------------------------------------------------
 # b3lyp/6-31+G(d,p) int=ultrafine pop=(ReadRadii,MK)
 ----------------------------------------------------

 --------------------------------------
 Ca3PO4_138.mol2cc_plusQ.z51141.zip.xyz
 --------------------------------------
 Symbolic Z-matrix:
 Charge =  1 Multiplicity = 1

                         Standard orientation:
 ---------------------------------------------------------------------
 Center     Atomic     Atomic              Coordinates (Angstroms)
 Number     Number      Type              X           Y           Z
 ---------------------------------------------------------------------
    1          8             0        0.054092   -0.836539   -0.778591
    2          8             0        0.156976   -1.831818    0.413979
    3          8             0        2.331685    1.218409   -0.506731
    4          8             0        1.936305    1.066948    0.971659
    5         15             0       -2.885005    1.308221    0.248859
    6         20             0       -2.001065   -1.493646   -0.059221
    7         20             0        0.119073    1.633861   -0.238181
    8         20             0        2.254123   -0.968181    0.070629
 ---------------------------------------------------------------------

 SCF Done:  E(RB+HF-LYP) =  -2674.71426406     A.U. after   18 cycles

 The electronic state is 1-A.
 Alpha  occ. eigenvalues -- -145.53397-145.49121-145.48613 -77.20720 -19.27003
 Alpha  occ. eigenvalues --  -19.26856 -19.22941 -19.22906 -15.60328 -15.55980
 Alpha  occ. eigenvalues --  -15.55545 -12.73561 -12.73511 -12.73405 -12.69190
 Alpha  occ. eigenvalues --  -12.69187 -12.69084 -12.68770 -12.68759 -12.68612
 Alpha  occ. eigenvalues --   -6.67452  -4.84565  -4.83034  -4.82938  -1.97522
 Alpha  occ. eigenvalues --   -1.93229  -1.92843  -1.25435  -1.25192  -1.24670
 Alpha  occ. eigenvalues --   -1.21932  -1.21132  -1.20742  -1.20551  -1.20376
 Alpha  occ. eigenvalues --   -1.19892  -1.09978  -1.06340  -0.90674  -0.85968
 Alpha  occ. eigenvalues --   -0.65482  -0.51040  -0.49835  -0.48112  -0.46438
 Alpha  occ. eigenvalues --   -0.45091  -0.43495  -0.38511  -0.35353  -0.34332
 Alpha  occ. eigenvalues --   -0.33345  -0.32968  -0.30913
 Alpha virt. eigenvalues --   -0.28634  -0.20436  -0.17457  -0.16213  -0.14071
 Alpha virt. eigenvalues --   -0.11689  -0.11157  -0.10371  -0.09614  -0.09149
 Alpha virt. eigenvalues --   -0.08015  -0.07054  -0.06490  -0.06116  -0.05792

 Mulliken atomic charges:
              1
     1  O   -0.688350
     2  O   -0.654254
     3  O   -0.619163
     4  O   -0.621565
     5  P   -0.260928
     6  Ca   1.159902
     7  Ca   1.178325
     8  Ca   1.506033
 Sum of Mulliken charges=   1.00000

 Dipole moment (field-independent basis, Debye):
    X=    -2.3884    Y=    -7.9213    Z=    -2.3447  Tot=     8.5994
 Quadrupole moment (field-independent basis, Debye-Ang):
   XX=   -54.7614   YY=   -53.5306   ZZ=   -74.4517
   XY=    -0.4702   XZ=     2.1093   YZ=    -4.5716

 Normal termination of Gaussian 03 at Fri Jun 12 17:38:53 2015.
