 Gaussian 03, Revision E.01,
 Gaussian 03:  EM64T-G03RevE.01 11-Sep-2007

 ----------------------------------------------------
 # b3lyp/6-31+G(d,p) int=ultrafine pop=(ReadRadii,MK)
 ----------------------------------------------------

 -------------------------------------
 Ca3PO4_127.mol2c_plusQ.z51129.zip.xyz
 -------------------------------------
 Symbolic Z-matrix:
 Charge =  1 Multiplicity = 1

                         Standard orientation:
 ---------------------------------------------------------------------
 Center     Atomic     Atomic              Coordinates (Angstroms)
 Number     Number      Type              X           Y           Z
 ---------------------------------------------------------------------
    1          8             0        0.564620   -0.436510    1.152520
    2          8             0       -1.029742    1.224169   -0.093780
    3          8             0        1.781899    0.353572    0.725410
    4          8             0       -1.921120   -0.844562    1.009790
    5         15             0       -1.083681    0.427549    1.384150
    6         20             0        1.830251   -1.734538   -0.265220
    7         20             0       -1.778910   -0.691802   -1.246150
    8         20             0        1.003157    1.987011   -0.644320
 ---------------------------------------------------------------------

 SCF Done:  E(RB+HF-LYP) =  -2674.86148578     A.U. after   12 cycles

 The electronic state is 1-A.
 Alpha  occ. eigenvalues -- -145.53667-145.52697-145.52449 -77.26365 -19.29587
 Alpha  occ. eigenvalues --  -19.27409 -19.23704 -19.21716 -15.60556 -15.59628
 Alpha  occ. eigenvalues --  -15.59352 -12.73782 -12.73695 -12.73687 -12.72833
 Alpha  occ. eigenvalues --  -12.72810 -12.72724 -12.72573 -12.72523 -12.72453
 Alpha  occ. eigenvalues --   -6.71588  -4.88029  -4.87871  -4.87315  -1.97690
 Alpha  occ. eigenvalues --   -1.96708  -1.96479  -1.25420  -1.25271  -1.25087
 Alpha  occ. eigenvalues --   -1.24406  -1.24152  -1.24124  -1.24032  -1.23866
 Alpha  occ. eigenvalues --   -1.23766  -1.14133  -1.07779  -1.02718  -0.92932
 Alpha  occ. eigenvalues --   -0.65125  -0.56046  -0.52680  -0.51777  -0.49768
 Alpha  occ. eigenvalues --   -0.47773  -0.44308  -0.40770  -0.40561  -0.39456
 Alpha  occ. eigenvalues --   -0.35851  -0.34320  -0.27645
 Alpha virt. eigenvalues --   -0.22033  -0.20599  -0.16174  -0.15011  -0.14475
 Alpha virt. eigenvalues --   -0.12570  -0.11687  -0.11208  -0.10360  -0.09831
 Alpha virt. eigenvalues --   -0.09002  -0.07768  -0.07349  -0.06940  -0.05592

 Mulliken atomic charges:
              1
     1  O   -0.456000
     2  O   -0.928202
     3  O   -0.601435
     4  O   -0.819016
     5  P    1.103780
     6  Ca   0.811813
     7  Ca   0.782958
     8  Ca   1.106103
 Sum of Mulliken charges=   1.00000

 Dipole moment (field-independent basis, Debye):
    X=     3.8204    Y=     1.0507    Z=    -8.5136  Tot=     9.3905
 Quadrupole moment (field-independent basis, Debye-Ang):
   XX=   -54.9639   YY=   -45.1980   ZZ=   -83.9650
   XY=     1.7348   XZ=    11.3460   YZ=    -3.3187

 Normal termination of Gaussian 03 at Fri Jun 12 17:37:48 2015.
