 Gaussian 03, Revision E.01,
 Gaussian 03:  EM64T-G03RevE.01 11-Sep-2007

 ----------------------------------------------------
 # b3lyp/6-31+G(d,p) int=ultrafine pop=(ReadRadii,MK)
 ----------------------------------------------------

 -------------------------------------
 Ca3PO4_208.mol2c_plusQ.z51418.zip.xyz
 -------------------------------------
 Symbolic Z-matrix:
 Charge =  1 Multiplicity = 1

                         Standard orientation:
 ---------------------------------------------------------------------
 Center     Atomic     Atomic              Coordinates (Angstroms)
 Number     Number      Type              X           Y           Z
 ---------------------------------------------------------------------
    1          8             0       -1.074933   -0.313138   -1.549142
    2          8             0       -2.089739   -0.006545   -0.513052
    3          8             0       -0.230606   -1.421888   -1.068322
    4          8             0        1.300666    1.244543   -0.121582
    5         15             0        1.070459    0.655846    1.575978
    6         20             0       -1.142876   -1.400957    1.091298
    7         20             0       -0.802446    1.883159   -0.279382
    8         20             0        1.980322   -0.775275   -0.693062
 ---------------------------------------------------------------------

 SCF Done:  E(RB+HF-LYP) =  -2674.74522865     A.U. after    9 cycles

 The electronic state is 1-A.
 Alpha  occ. eigenvalues -- -145.52282-145.51803-145.50800 -77.15438 -19.36561
 Alpha  occ. eigenvalues --  -19.27763 -19.27501 -19.20711 -15.59132 -15.58633
 Alpha  occ. eigenvalues --  -15.57714 -12.72349 -12.72299 -12.72267 -12.71860
 Alpha  occ. eigenvalues --  -12.71838 -12.71731 -12.70904 -12.70895 -12.70825
 Alpha  occ. eigenvalues --   -6.61993  -4.78484  -4.77922  -4.77803  -1.96275
 Alpha  occ. eigenvalues --   -1.95777  -1.94940  -1.25209  -1.23853  -1.23813
 Alpha  occ. eigenvalues --   -1.23573  -1.23370  -1.23047  -1.22600  -1.22447
 Alpha  occ. eigenvalues --   -1.22118  -1.19858  -1.03843  -0.99579  -0.87973
 Alpha  occ. eigenvalues --   -0.61285  -0.58808  -0.56131  -0.54168  -0.43920
 Alpha  occ. eigenvalues --   -0.43144  -0.42280  -0.41890  -0.41160  -0.40589
 Alpha  occ. eigenvalues --   -0.34729  -0.28066  -0.26905
 Alpha virt. eigenvalues --   -0.20683  -0.19000  -0.18779  -0.14953  -0.13867
 Alpha virt. eigenvalues --   -0.12276  -0.11097  -0.10284  -0.09811  -0.09299
 Alpha virt. eigenvalues --   -0.09012  -0.07346  -0.07015  -0.06662  -0.05935

 Mulliken atomic charges:
              1
     1  O    0.031049
     2  O   -0.652815
     3  O   -0.640149
     4  O   -0.758709
     5  P   -0.522704
     6  Ca   0.972838
     7  Ca   1.323357
     8  Ca   1.247134
 Sum of Mulliken charges=   1.00000

 Dipole moment (field-independent basis, Debye):
    X=     0.2176    Y=    -0.9424    Z=    -2.0147  Tot=     2.2349
 Quadrupole moment (field-independent basis, Debye-Ang):
   XX=   -57.1873   YY=   -46.1495   ZZ=   -78.3208
   XY=   -18.3406   XZ=   -25.3367   YZ=   -15.2959

 Normal termination of Gaussian 03 at Fri Jun 12 17:41:47 2015.
