 Gaussian 03, Revision E.01,
 Gaussian 03:  EM64T-G03RevE.01 11-Sep-2007

 ----------------------------------------------------
 # b3lyp/6-31+G(d,p) int=ultrafine pop=(ReadRadii,MK)
 ----------------------------------------------------

 ------------------------------------
 Ca3PO4_50.mol2c_plusQ.z51464.zip.xyz
 ------------------------------------
 Symbolic Z-matrix:
 Charge =  1 Multiplicity = 1

                         Standard orientation:
 ---------------------------------------------------------------------
 Center     Atomic     Atomic              Coordinates (Angstroms)
 Number     Number      Type              X           Y           Z
 ---------------------------------------------------------------------
    1          8             0       -3.357179    0.666550    0.034302
    2          8             0       -1.557999   -1.028750   -0.031498
    3          8             0        0.888111    0.957860   -0.004688
    4          8             0        2.962141   -1.328571    0.008382
    5         15             0       -3.112109   -0.852940    0.018662
    6         20             0        0.804871   -1.422270   -0.011198
    7         20             0        3.139641    0.793539    0.014882
    8         20             0       -1.184459    1.561600   -0.020278
 ---------------------------------------------------------------------

 SCF Done:  E(RB+HF-LYP) =  -2675.00684557     A.U. after   10 cycles

 The electronic state is 1-A.
 Alpha  occ. eigenvalues -- -145.52272-145.46985-145.45453 -77.31346 -19.29513
 Alpha  occ. eigenvalues --  -19.28768 -19.17013 -19.10495 -15.59181 -15.53882
 Alpha  occ. eigenvalues --  -15.52383 -12.72445 -12.72401 -12.72200 -12.67124
 Alpha  occ. eigenvalues --  -12.67039 -12.66960 -12.65653 -12.65562 -12.65427
 Alpha  occ. eigenvalues --   -6.76932  -4.93368  -4.93137  -4.92721  -1.96431
 Alpha  occ. eigenvalues --   -1.91169  -1.89802  -1.24363  -1.24348  -1.23318
 Alpha  occ. eigenvalues --   -1.19040  -1.18788  -1.18139  -1.17856  -1.17274
 Alpha  occ. eigenvalues --   -1.17053  -1.15036  -1.09383  -0.91745  -0.84469
 Alpha  occ. eigenvalues --   -0.68442  -0.57412  -0.54741  -0.54060  -0.46479
 Alpha  occ. eigenvalues --   -0.45027  -0.42642  -0.37850  -0.36792  -0.35800
 Alpha  occ. eigenvalues --   -0.30015  -0.28567  -0.28254
 Alpha virt. eigenvalues --   -0.21233  -0.20111  -0.17867  -0.15059  -0.12980
 Alpha virt. eigenvalues --   -0.11115  -0.10415  -0.10255  -0.09287  -0.08842
 Alpha virt. eigenvalues --   -0.08422  -0.07231  -0.06842  -0.06426  -0.05450

 Mulliken atomic charges:
              1
     1  O   -0.653870
     2  O   -0.741355
     3  O   -1.321658
     4  O   -1.132215
     5  P    0.675589
     6  Ca   1.327221
     7  Ca   1.347062
     8  Ca   1.499227
 Sum of Mulliken charges=   1.00000

 Dipole moment (field-independent basis, Debye):
    X=    -0.1894    Y=     8.1815    Z=    -0.1117  Tot=     8.1845
 Quadrupole moment (field-independent basis, Debye-Ang):
   XX=   -60.0731   YY=   -52.1908   ZZ=   -68.9278
   XY=    23.1408   XZ=     0.4555   YZ=    -0.1470

 Normal termination of Gaussian 03 at Fri Jun 12 17:44:06 2015.
