 Gaussian 03, Revision E.01,
 Gaussian 03:  EM64T-G03RevE.01 11-Sep-2007

 ----------------------------------------------------
 # b3lyp/6-31+G(d,p) int=ultrafine pop=(ReadRadii,MK)
 ----------------------------------------------------

 -------------------------------------
 Ca3PO4_44.mol2cc_plusQ.z51457.zip.xyz
 -------------------------------------
 Symbolic Z-matrix:
 Charge =  1 Multiplicity = 1

                         Standard orientation:
 ---------------------------------------------------------------------
 Center     Atomic     Atomic              Coordinates (Angstroms)
 Number     Number      Type              X           Y           Z
 ---------------------------------------------------------------------
    1          8             0        1.740750   -1.707899   -0.000081
    2          8             0       -2.045551   -0.889333   -0.785151
    3          8             0        2.256357    0.780342    0.000009
    4          8             0       -2.046231   -0.889293    0.785299
    5         15             0        2.856649   -0.638378   -0.000531
    6         20             0       -0.462139   -2.239851    0.000409
    7         20             0       -2.527703    1.172857   -0.000511
    8         20             0        0.885226    2.628250    0.000469
 ---------------------------------------------------------------------

 SCF Done:  E(RB+HF-LYP) =  -2674.90063733     A.U. after   10 cycles

 The electronic state is 1-A.
 Alpha  occ. eigenvalues -- -145.51409-145.50956-145.49494 -77.29439 -19.27283
 Alpha  occ. eigenvalues --  -19.27147 -19.23963 -19.23929 -15.58398 -15.57830
 Alpha  occ. eigenvalues --  -15.56468 -12.71593 -12.71578 -12.71467 -12.71063
 Alpha  occ. eigenvalues --  -12.71048 -12.70902 -12.69686 -12.69654 -12.69540
 Alpha  occ. eigenvalues --   -6.74926  -4.91371  -4.91151  -4.90703  -1.95528
 Alpha  occ. eigenvalues --   -1.95024  -1.93678  -1.23156  -1.23030  -1.22963
 Alpha  occ. eigenvalues --   -1.22711  -1.22659  -1.22630  -1.21319  -1.21154
 Alpha  occ. eigenvalues --   -1.20985  -1.13244  -1.07948  -1.06512  -0.87737
 Alpha  occ. eigenvalues --   -0.67205  -0.56772  -0.52052  -0.51927  -0.47329
 Alpha  occ. eigenvalues --   -0.46451  -0.45148  -0.44571  -0.43334  -0.39978
 Alpha  occ. eigenvalues --   -0.35755  -0.32201  -0.27374
 Alpha virt. eigenvalues --   -0.19208  -0.18705  -0.17852  -0.14891  -0.13674
 Alpha virt. eigenvalues --   -0.12170  -0.11966  -0.10034  -0.09275  -0.08010
 Alpha virt. eigenvalues --   -0.07803  -0.07423  -0.06922  -0.06781  -0.05864

 Mulliken atomic charges:
              1
     1  O   -0.712018
     2  O   -0.641397
     3  O   -0.627153
     4  O   -0.642123
     5  P    0.677924
     6  Ca   1.445610
     7  Ca   0.913027
     8  Ca   0.586131
 Sum of Mulliken charges=   1.00000

 Dipole moment (field-independent basis, Debye):
    X=    -1.8212    Y=     0.6458    Z=    -0.0020  Tot=     1.9323
 Quadrupole moment (field-independent basis, Debye-Ang):
   XX=   -62.3509   YY=   -34.6008   ZZ=   -80.2295
   XY=    -0.0411   XZ=     0.0165   YZ=    -0.0033

 Normal termination of Gaussian 03 at Fri Jun 12 17:43:38 2015.
