 Gaussian 03, Revision E.01,
 Gaussian 03:  EM64T-G03RevE.01 11-Sep-2007

 ----------------------------------------------------
 # b3lyp/6-31+G(d,p) int=ultrafine pop=(ReadRadii,MK)
 ----------------------------------------------------

 ------------------------------------
 Ca3PO4_40.mol2c_plusQ.z51453.zip.xyz
 ------------------------------------
 Symbolic Z-matrix:
 Charge =  1 Multiplicity = 1

                         Standard orientation:
 ---------------------------------------------------------------------
 Center     Atomic     Atomic              Coordinates (Angstroms)
 Number     Number      Type              X           Y           Z
 ---------------------------------------------------------------------
    1          8             0       -2.069351    1.274805    0.000020
    2          8             0       -2.068999   -1.275555    0.000270
    3          8             0        1.780517   -1.884862   -0.000030
    4          8             0        1.779713    1.885288    0.000140
    5         15             0       -2.936070   -0.000499    0.000050
    6         20             0       -0.199668   -2.593078   -0.000140
    7         20             0        2.833590    0.000440    0.000080
    8         20             0       -0.200622    2.593142   -0.000140
 ---------------------------------------------------------------------

 SCF Done:  E(RB+HF-LYP) =  -2674.99692711     A.U. after    7 cycles

 The electronic state is 1-A.
 Alpha  occ. eigenvalues -- -145.49207-145.49205-145.42872 -77.29677 -19.27525
 Alpha  occ. eigenvalues --  -19.27524 -19.11834 -19.11833 -15.56112 -15.56111
 Alpha  occ. eigenvalues --  -15.49904 -12.69365 -12.69364 -12.69321 -12.69320
 Alpha  occ. eigenvalues --  -12.69145 -12.69144 -12.63161 -12.63108 -12.62900
 Alpha  occ. eigenvalues --   -6.75165  -4.91611  -4.91389  -4.90945  -1.93354
 Alpha  occ. eigenvalues --   -1.93353  -1.87394  -1.21219  -1.21219  -1.21125
 Alpha  occ. eigenvalues --   -1.21056  -1.20283  -1.20239  -1.15436  -1.15127
 Alpha  occ. eigenvalues --   -1.14224  -1.13366  -1.08164  -0.86236  -0.85661
 Alpha  occ. eigenvalues --   -0.67429  -0.56990  -0.52244  -0.52200  -0.45472
 Alpha  occ. eigenvalues --   -0.43644  -0.40113  -0.33052  -0.31444  -0.30728
 Alpha  occ. eigenvalues --   -0.30323  -0.30162  -0.29707
 Alpha virt. eigenvalues --   -0.19440  -0.18401  -0.17738  -0.14275  -0.11280
 Alpha virt. eigenvalues --   -0.10197  -0.10178  -0.08905  -0.08323  -0.07853
 Alpha virt. eigenvalues --   -0.07520  -0.06905  -0.06052  -0.05561  -0.04928

 Mulliken atomic charges:
              1
     1  O   -0.701430
     2  O   -0.701397
     3  O   -1.243874
     4  O   -1.243917
     5  P    0.646137
     6  Ca   1.442836
     7  Ca   1.358771
     8  Ca   1.442873
 Sum of Mulliken charges=   1.00000

 Dipole moment (field-independent basis, Debye):
    X=    -0.8656    Y=     0.0015    Z=    -0.0024  Tot=     0.8656
 Quadrupole moment (field-independent basis, Debye-Ang):
   XX=   -57.1969   YY=   -26.5359   ZZ=   -69.0832
   XY=    -0.0040   XZ=     0.0020   YZ=    -0.0009

 Normal termination of Gaussian 03 at Fri Jun 12 17:42:56 2015.
