 Gaussian 03, Revision E.01,
 Gaussian 03:  EM64T-G03RevE.01 11-Sep-2007

 ----------------------------------------------------
 # b3lyp/6-31+G(d,p) int=ultrafine pop=(ReadRadii,MK)
 ----------------------------------------------------

 -------------------------------------
 Ca3PO4_103.mol2c_plusQ.z51103.zip.xyz
 -------------------------------------
 Symbolic Z-matrix:
 Charge =  1 Multiplicity = 1

                         Standard orientation:
 ---------------------------------------------------------------------
 Center     Atomic     Atomic              Coordinates (Angstroms)
 Number     Number      Type              X           Y           Z
 ---------------------------------------------------------------------
    1          8             0       -0.056159   -1.479041    0.922873
    2          8             0        1.309511    0.692216    0.921973
    3          8             0       -1.253294    0.789522    0.921923
    4          8             0       -0.000048   -0.001311   -1.711867
    5         15             0        0.000047    0.002001    1.718043
    6         20             0       -1.720975   -0.908982   -0.569307
    7         20             0        1.647119   -1.036857   -0.569277
    8         20             0        0.073816    1.943783   -0.571907
 ---------------------------------------------------------------------

 SCF Done:  E(RB+HF-LYP) =  -2675.07103767     A.U. after    8 cycles

 The electronic state is 1-A.
 Alpha  occ. eigenvalues -- -145.49639-145.49633-145.49632 -77.25053 -19.21251
 Alpha  occ. eigenvalues --  -19.21250 -19.21165 -19.15938 -15.56472 -15.56468
 Alpha  occ. eigenvalues --  -15.56468 -12.69669 -12.69668 -12.69667 -12.69646
 Alpha  occ. eigenvalues --  -12.69646 -12.69643 -12.69599 -12.69598 -12.69597
 Alpha  occ. eigenvalues --   -6.70083  -4.86432  -4.86432  -4.85895  -1.93821
 Alpha  occ. eigenvalues --   -1.93736  -1.93736  -1.22375  -1.21693  -1.21692
 Alpha  occ. eigenvalues --   -1.21304  -1.21137  -1.21063  -1.21061  -1.20640
 Alpha  occ. eigenvalues --   -1.20639  -1.06754  -1.00374  -1.00329  -0.90935
 Alpha  occ. eigenvalues --   -0.62641  -0.50530  -0.50519  -0.47957  -0.43356
 Alpha  occ. eigenvalues --   -0.43353  -0.38354  -0.38329  -0.38176  -0.36133
 Alpha  occ. eigenvalues --   -0.36129  -0.34587  -0.30859
 Alpha virt. eigenvalues --   -0.19948  -0.18025  -0.18025  -0.12553  -0.12552
 Alpha virt. eigenvalues --   -0.10893  -0.09477  -0.09477  -0.08338  -0.07771
 Alpha virt. eigenvalues --   -0.06545  -0.06114  -0.06113  -0.04764  -0.04716

 Mulliken atomic charges:
              1
     1  O   -1.031943
     2  O   -1.032322
     3  O   -1.032327
     4  O   -1.251052
     5  P    1.097935
     6  Ca   1.416635
     7  Ca   1.416627
     8  Ca   1.416446
 Sum of Mulliken charges=   1.00000

 Dipole moment (field-independent basis, Debye):
    X=    -0.0002    Y=    -0.0127    Z=    -8.2275  Tot=     8.2275
 Quadrupole moment (field-independent basis, Debye-Ang):
   XX=   -40.0275   YY=   -40.0412   ZZ=   -90.0141
   XY=    -0.0003   XZ=    -0.0015   YZ=    -0.0430

 Normal termination of Gaussian 03 at Fri Jun 12 17:35:58 2015.
