 Gaussian 03, Revision E.01,
 Gaussian 03:  EM64T-G03RevE.01 11-Sep-2007

 ----------------------------------------------------
 # b3lyp/6-31+G(d,p) int=ultrafine pop=(ReadRadii,MK)
 ----------------------------------------------------

 -------------------------------------
 Ca3PO4_101.mol2c_plusQ.z51101.zip.xyz
 -------------------------------------
 Symbolic Z-matrix:
 Charge =  1 Multiplicity = 1

                         Standard orientation:
 ---------------------------------------------------------------------
 Center     Atomic     Atomic              Coordinates (Angstroms)
 Number     Number      Type              X           Y           Z
 ---------------------------------------------------------------------
    1          8             0       -1.013460   -1.420621    0.855081
    2          8             0       -0.949660    0.421719   -0.816669
    3          8             0        0.949990    0.397220    0.834731
    4          8             0        0.979490   -1.429910   -0.853989
    5         15             0       -0.008790   -0.610350    0.005661
    6         20             0        2.903660   -0.576849    0.003481
    7         20             0        0.034789    2.389130   -0.000399
    8         20             0       -2.918400   -0.541881   -0.014989
 ---------------------------------------------------------------------

 SCF Done:  E(RB+HF-LYP) =  -2675.02389810     A.U. after   10 cycles

 The electronic state is 1-A.
 Alpha  occ. eigenvalues -- -145.53474-145.53288-145.51736 -77.32269 -19.24232
 Alpha  occ. eigenvalues --  -19.24203 -19.22173 -19.22075 -15.60360 -15.60178
 Alpha  occ. eigenvalues --  -15.58660 -12.73588 -12.73521 -12.73474 -12.73405
 Alpha  occ. eigenvalues --  -12.73339 -12.73291 -12.71876 -12.71817 -12.71768
 Alpha  occ. eigenvalues --   -6.76634  -4.93062  -4.92974  -4.92899  -1.97388
 Alpha  occ. eigenvalues --   -1.97211  -1.95737  -1.25076  -1.24980  -1.24816
 Alpha  occ. eigenvalues --   -1.24764  -1.24647  -1.24474  -1.23292  -1.23228
 Alpha  occ. eigenvalues --   -1.23048  -1.13458  -1.05324  -1.04516  -1.03727
 Alpha  occ. eigenvalues --   -0.63581  -0.55121  -0.54392  -0.53422  -0.48080
 Alpha  occ. eigenvalues --   -0.45556  -0.45065  -0.43204  -0.42773  -0.40367
 Alpha  occ. eigenvalues --   -0.39062  -0.37943  -0.25280
 Alpha virt. eigenvalues --   -0.22081  -0.20679  -0.15425  -0.13345  -0.13279
 Alpha virt. eigenvalues --   -0.12177  -0.11584  -0.11418  -0.10356  -0.08710
 Alpha virt. eigenvalues --   -0.07707  -0.07170  -0.06125  -0.05498  -0.05270

 Mulliken atomic charges:
              1
     1  O   -0.807804
     2  O   -0.997936
     3  O   -0.996002
     4  O   -0.807025
     5  P    1.777182
     6  Ca   0.905590
     7  Ca   1.018215
     8  Ca   0.907780
 Sum of Mulliken charges=   1.00000

 Dipole moment (field-independent basis, Debye):
    X=     0.0901    Y=     3.1037    Z=    -0.0497  Tot=     3.1054
 Quadrupole moment (field-independent basis, Debye-Ang):
   XX=   -10.8262   YY=   -69.8230   ZZ=   -88.7165
   XY=    -0.5113   XZ=     2.2660   YZ=     0.1063

 Normal termination of Gaussian 03 at Fri Jun 12 17:36:24 2015.
