 Gaussian 03, Revision E.01,
 Gaussian 03:  EM64T-G03RevE.01 11-Sep-2007

 ----------------------------------------------------
 # b3lyp/6-31+G(d,p) int=ultrafine pop=(ReadRadii,MK)
 ----------------------------------------------------

 -------------------------------------
 Ca3PO4_96.mol2cc_plusQ.z51514.zip.xyz
 -------------------------------------
 Symbolic Z-matrix:
 Charge =  1 Multiplicity = 1

                         Standard orientation:
 ---------------------------------------------------------------------
 Center     Atomic     Atomic              Coordinates (Angstroms)
 Number     Number      Type              X           Y           Z
 ---------------------------------------------------------------------
    1          8             0       -2.932369    0.000019   -0.519370
    2          8             0       -0.818170    1.275354    0.514660
    3          8             0       -0.818177   -1.275366    0.514630
    4          8             0        1.814601   -0.000003    0.063760
    5         15             0       -1.447119    0.000009   -0.356950
    6         20             0        0.856763    1.755913   -0.944630
    7         20             0        0.856750   -1.755897   -0.944660
    8         20             0        0.473471   -0.000024    1.927530
 ---------------------------------------------------------------------

 SCF Done:  E(RB+HF-LYP) =  -2674.98830438     A.U. after   11 cycles

 The electronic state is 1-A.
 Alpha  occ. eigenvalues -- -145.52382-145.52381-145.50968 -77.26185 -19.22450
 Alpha  occ. eigenvalues --  -19.22450 -19.18533 -19.18178 -15.59234 -15.59234
 Alpha  occ. eigenvalues --  -15.57803 -12.72467 -12.72466 -12.72387 -12.72387
 Alpha  occ. eigenvalues --  -12.72353 -12.72353 -12.71001 -12.70970 -12.70944
 Alpha  occ. eigenvalues --   -6.71194  -4.87598  -4.87496  -4.87250  -1.96438
 Alpha  occ. eigenvalues --   -1.96403  -1.95063  -1.24371  -1.24184  -1.24077
 Alpha  occ. eigenvalues --   -1.23889  -1.23677  -1.23244  -1.22633  -1.22632
 Alpha  occ. eigenvalues --   -1.22130  -1.07843  -1.01762  -1.01204  -0.93035
 Alpha  occ. eigenvalues --   -0.61877  -0.51472  -0.49919  -0.48090  -0.43557
 Alpha  occ. eigenvalues --   -0.42348  -0.40117  -0.38571  -0.38447  -0.37929
 Alpha  occ. eigenvalues --   -0.35589  -0.35456  -0.29884
 Alpha virt. eigenvalues --   -0.21312  -0.20244  -0.19529  -0.14881  -0.13836
 Alpha virt. eigenvalues --   -0.12188  -0.11021  -0.10734  -0.09733  -0.09393
 Alpha virt. eigenvalues --   -0.07259  -0.07244  -0.06944  -0.05301  -0.05096

 Mulliken atomic charges:
              1
     1  O   -0.644639
     2  O   -0.675922
     3  O   -0.675924
     4  O   -1.137530
     5  P   -0.029050
     6  Ca   1.360732
     7  Ca   1.360732
     8  Ca   1.441601
 Sum of Mulliken charges=   1.00000

 Dipole moment (field-independent basis, Debye):
    X=    12.6891    Y=     0.0000    Z=     0.0592  Tot=    12.6893
 Quadrupole moment (field-independent basis, Debye-Ang):
   XX=  -101.1131   YY=   -38.5071   ZZ=   -38.5239
   XY=     0.0003   XZ=    -6.5256   YZ=    -0.0001

 Normal termination of Gaussian 03 at Fri Jun 12 17:46:50 2015.
