 Gaussian 03, Revision E.01,
 Gaussian 03:  EM64T-G03RevE.01 11-Sep-2007

 ----------------------------------------------------
 # b3lyp/6-31+G(d,p) int=ultrafine pop=(ReadRadii,MK)
 ----------------------------------------------------

 ---------------------------------------
 mol_16.5.7.pdb_plusQ.out.z51632.zip.xyz
 ---------------------------------------
 Symbolic Z-matrix:
 Charge =  1 Multiplicity = 1

                         Standard orientation:
 ---------------------------------------------------------------------
 Center     Atomic     Atomic              Coordinates (Angstroms)
 Number     Number      Type              X           Y           Z
 ---------------------------------------------------------------------
    1          8             0       -2.380632    0.981736    0.083391
    2          8             0       -1.072262    0.991377   -0.708809
    3         15             0        0.141318    1.025488    0.500391
    4          8             0        1.478977    1.318709   -0.299959
    5          8             0        0.295599   -0.761402    0.557541
    6         20             0       -1.866740   -1.138334   -0.090439
    7         20             0        2.432079   -0.642950   -0.137719
 ---------------------------------------------------------------------

 SCF Done:  E(RB+HF-LYP) =  -1997.24495201     A.U. after    8 cycles

 The electronic state is 1-A.
 Alpha  occ. eigenvalues -- -145.57625-145.54058 -77.27106 -19.28973 -19.24804
 Alpha  occ. eigenvalues --  -19.23671 -19.23172 -15.64461 -15.60902 -12.77697
 Alpha  occ. eigenvalues --  -12.77604 -12.77593 -12.74136 -12.74074 -12.74009
 Alpha  occ. eigenvalues --   -6.72323  -4.88693  -4.88640  -4.88088  -2.01497
 Alpha  occ. eigenvalues --   -1.98041  -1.29160  -1.28950  -1.28617  -1.26148
 Alpha  occ. eigenvalues --   -1.25667  -1.25153  -1.13831  -1.07234  -1.02478
 Alpha  occ. eigenvalues --   -0.91046  -0.65398  -0.54248  -0.53009  -0.51787
 Alpha  occ. eigenvalues --   -0.48108  -0.46657  -0.44267  -0.41890  -0.40443
 Alpha  occ. eigenvalues --   -0.35081  -0.34072  -0.33524
 Alpha virt. eigenvalues --   -0.24373  -0.21746  -0.15902  -0.14860  -0.13528
 Alpha virt. eigenvalues --   -0.12388  -0.11258  -0.09439  -0.08527  -0.08139
 Alpha virt. eigenvalues --   -0.07201  -0.06546  -0.05818  -0.05466  -0.05144

 Mulliken atomic charges:
              1
     1  O   -0.540141
     2  O   -0.449465
     3  P    0.997173
     4  O   -0.850167
     5  O   -1.098615
     6  Ca   1.459703
     7  Ca   1.481513
 Sum of Mulliken charges=   1.00000

 Dipole moment (field-independent basis, Debye):
    X=     6.6207    Y=   -15.4781    Z=    -1.6804  Tot=    16.9183
 Quadrupole moment (field-independent basis, Debye-Ang):
   XX=    -8.4525   YY=   -52.2308   ZZ=   -60.1181
   XY=     7.3358   XZ=    -0.8350   YZ=     5.7341

 Normal termination of Gaussian 03 at Fri Jun 12 17:49:44 2015.
