 Gaussian 03, Revision E.01,
 Gaussian 03:  EM64T-G03RevE.01 11-Sep-2007

 ----------------------------------------------------
 # b3lyp/6-31+G(d,p) int=ultrafine pop=(ReadRadii,MK)
 ----------------------------------------------------

 -----------------------------------------
 mol_17.24.23.pdbcccc_plusQ.z58278.zip.xyz
 -----------------------------------------
 Symbolic Z-matrix:
 Charge =  1 Multiplicity = 1

                         Standard orientation:
 ---------------------------------------------------------------------
 Center     Atomic     Atomic              Coordinates (Angstroms)
 Number     Number      Type              X           Y           Z
 ---------------------------------------------------------------------
    1          8             0        0.017718   -1.280269    1.194751
    2          8             0       -0.220239   -0.001118   -1.481139
    3         20             0        0.998634    1.759810   -0.857259
    4         20             0        1.025098   -1.745781   -0.864359
    5         15             0        0.924961    0.001270    1.544901
    6          8             0        2.044721    0.011868    0.362171
    7          8             0       -0.000127    1.271291    1.200401
    8         20             0       -1.850549   -0.014945    0.206451
    9          8             0       -4.009329   -0.001862   -0.384949
 ---------------------------------------------------------------------

 SCF Done:  E(RB+HF-LYP) =  -2750.13171331     A.U. after   18 cycles

 The electronic state is 1-A.
 Alpha  occ. eigenvalues -- -145.54372-145.54368-145.46597 -77.31609 -19.27365
 Alpha  occ. eigenvalues --  -19.27004 -19.26984 -19.24473 -19.20315 -15.61167
 Alpha  occ. eigenvalues --  -15.61164 -15.53504 -12.74377 -12.74376 -12.74343
 Alpha  occ. eigenvalues --  -12.74341 -12.74302 -12.74300 -12.66757 -12.66709
 Alpha  occ. eigenvalues --  -12.66561  -6.76675  -4.93009  -4.92992  -4.92702
 Alpha  occ. eigenvalues --   -1.98340  -1.98302  -1.90923  -1.26508  -1.26016
 Alpha  occ. eigenvalues --   -1.25953  -1.25701  -1.25623  -1.25166  -1.18954
 Alpha  occ. eigenvalues --   -1.18822  -1.18453  -1.13862  -1.07085  -1.07042
 Alpha  occ. eigenvalues --   -0.94953  -0.93751  -0.67348  -0.56559  -0.56346
 Alpha  occ. eigenvalues --   -0.54259  -0.49235  -0.48807  -0.44123  -0.43966
 Alpha  occ. eigenvalues --   -0.43252  -0.40126  -0.39692  -0.37985  -0.37054
 Alpha  occ. eigenvalues --   -0.36105  -0.33479
 Alpha virt. eigenvalues --   -0.31048  -0.22194  -0.20830  -0.15135  -0.13386
 Alpha virt. eigenvalues --   -0.13011  -0.12151  -0.11853  -0.09007  -0.08140
 Alpha virt. eigenvalues --   -0.07783  -0.06995  -0.06902  -0.06235  -0.05588

 Mulliken atomic charges:
              1
     1  O   -0.915617
     2  O   -1.199939
     3  Ca   1.494780
     4  Ca   1.495317
     5  P    1.156032
     6  O   -0.952272
     7  O   -0.916307
     8  Ca   1.338044
     9  O   -0.500037
 Sum of Mulliken charges=   1.00000

 Dipole moment (field-independent basis, Debye):
    X=     9.7149    Y=     0.0041    Z=    -6.2037  Tot=    11.5267
 Quadrupole moment (field-independent basis, Debye-Ang):
   XX=   -93.0335   YY=   -37.0312   ZZ=   -79.8860
   XY=    -0.0758   XZ=   -22.7430   YZ=    -0.0406

 Normal termination of Gaussian 03 at Fri Jun 12 17:57:26 2015.
