 Gaussian 03, Revision E.01,
 Gaussian 03:  EM64T-G03RevE.01 11-Sep-2007

 ----------------------------------------------------
 # b3lyp/6-31+G(d,p) int=ultrafine pop=(ReadRadii,MK)
 ----------------------------------------------------

 --------------------------------------
 mol_17.27.50.pdbc_plusQ.z58517.zip.xyz
 --------------------------------------
 Symbolic Z-matrix:
 Charge =  1 Multiplicity = 1

                         Standard orientation:
 ---------------------------------------------------------------------
 Center     Atomic     Atomic              Coordinates (Angstroms)
 Number     Number      Type              X           Y           Z
 ---------------------------------------------------------------------
    1          8             0        2.595990    0.164668   -0.000359
    2          8             0        1.333319   -2.039721   -0.000129
    3         15             0        2.727049   -1.369982   -0.000359
    4         20             0       -0.921481   -1.939170    0.000301
    5         20             0        1.831791    2.335999    0.000401
    6         20             0       -1.847289    1.771901   -0.000529
    7          8             0       -1.942060   -0.250739    1.196231
    8          8             0       -2.814970   -0.476049    0.000501
    9          8             0       -1.943050   -0.251269   -1.195999
 ---------------------------------------------------------------------

 SCF Done:  E(RB+HF-LYP) =  -2750.06910164     A.U. after   10 cycles

 The electronic state is 1-A.
 Alpha  occ. eigenvalues -- -145.52274-145.51797-145.50938 -77.29695 -19.37662
 Alpha  occ. eigenvalues --  -19.28184 -19.28184 -19.27632 -19.27342 -15.59077
 Alpha  occ. eigenvalues --  -15.58773 -15.57873 -12.72312 -12.72283 -12.72181
 Alpha  occ. eigenvalues --  -12.71970 -12.71953 -12.71846 -12.71085 -12.71048
 Alpha  occ. eigenvalues --  -12.70972  -6.75172  -4.91617  -4.91399  -4.90949
 Alpha  occ. eigenvalues --   -1.96202  -1.95881  -1.95031  -1.27036  -1.23881
 Alpha  occ. eigenvalues --   -1.23716  -1.23383  -1.23306  -1.23028  -1.22822
 Alpha  occ. eigenvalues --   -1.22500  -1.22421  -1.19085  -1.13495  -1.08173
 Alpha  occ. eigenvalues --   -1.03931  -0.88844  -0.67509  -0.57938  -0.57310
 Alpha  occ. eigenvalues --   -0.56321  -0.55920  -0.52313  -0.52173  -0.45416
 Alpha  occ. eigenvalues --   -0.44266  -0.43612  -0.42166  -0.40193  -0.39538
 Alpha  occ. eigenvalues --   -0.36824  -0.27625
 Alpha virt. eigenvalues --   -0.19447  -0.18922  -0.17831  -0.14937  -0.14695
 Alpha virt. eigenvalues --   -0.13317  -0.12235  -0.11270  -0.10012  -0.09135
 Alpha virt. eigenvalues --   -0.07994  -0.07830  -0.07787  -0.06845  -0.06779

 Mulliken atomic charges:
              1
     1  O   -0.626598
     2  O   -0.709881
     3  P    0.684924
     4  Ca   1.420660
     5  Ca   0.628357
     6  Ca   0.861553
     7  O   -0.605834
     8  O   -0.047317
     9  O   -0.605863
 Sum of Mulliken charges=   1.00000

 Dipole moment (field-independent basis, Debye):
    X=    -0.2355    Y=     1.6190    Z=     0.0008  Tot=     1.6360
 Quadrupole moment (field-independent basis, Debye-Ang):
   XX=   -65.9652   YY=   -43.3120   ZZ=   -89.4167
   XY=     9.0875   XZ=     0.0082   YZ=    -0.0058

 Normal termination of Gaussian 03 at Fri Jun 12 18:06:54 2015.
