 Gaussian 03, Revision E.01,
 Gaussian 03:  EM64T-G03RevE.01 11-Sep-2007

 ----------------------------------------------------
 # b3lyp/6-31+G(d,p) int=ultrafine pop=(ReadRadii,MK)
 ----------------------------------------------------

 -------------------------------------------
 mol_16.4.50.pdbccc_plusQ.out.z51601.zip.xyz
 -------------------------------------------
 Symbolic Z-matrix:
 Charge =  1 Multiplicity = 1

                         Standard orientation:
 ---------------------------------------------------------------------
 Center     Atomic     Atomic              Coordinates (Angstroms)
 Number     Number      Type              X           Y           Z
 ---------------------------------------------------------------------
    1          8             0       -1.440972   -1.274662   -0.000509
    2          8             0       -1.443872    1.272188    0.000241
    3         15             0       -2.320002   -0.002229    0.000091
    4         20             0        0.763513   -1.857415   -0.000079
    5         20             0        0.759684    1.858755   -0.000299
    6          8             0        1.714118    0.001592   -0.785679
    7          8             0        1.712738    0.001712    0.786721
 ---------------------------------------------------------------------

 SCF Done:  E(RB+HF-LYP) =  -1997.33372459     A.U. after    6 cycles

 The electronic state is 1-A.
 Alpha  occ. eigenvalues -- -145.53247-145.53246 -77.30160 -19.27954 -19.27949
 Alpha  occ. eigenvalues --  -19.25612 -19.25564 -15.60093 -15.60093 -12.73308
 Alpha  occ. eigenvalues --  -12.73308 -12.73290 -12.73290 -12.73208 -12.73206
 Alpha  occ. eigenvalues --   -6.75642  -4.92082  -4.91867  -4.91422  -1.97236
 Alpha  occ. eigenvalues --   -1.97210  -1.25765  -1.24806  -1.24792  -1.24726
 Alpha  occ. eigenvalues --   -1.24725  -1.24303  -1.13925  -1.08555  -1.08251
 Alpha  occ. eigenvalues --   -0.89521  -0.67704  -0.57281  -0.52823  -0.52601
 Alpha  occ. eigenvalues --   -0.48994  -0.47945  -0.46121  -0.45762  -0.43900
 Alpha  occ. eigenvalues --   -0.40699  -0.37191  -0.34167
 Alpha virt. eigenvalues --   -0.20457  -0.19851  -0.19631  -0.14481  -0.11368
 Alpha virt. eigenvalues --   -0.11280  -0.10319  -0.09667  -0.09044  -0.07375
 Alpha virt. eigenvalues --   -0.07215  -0.06432  -0.05961  -0.05215  -0.04857

 Mulliken atomic charges:
              1
     1  O   -0.709774
     2  O   -0.709822
     3  P    0.668676
     4  Ca   1.544010
     5  Ca   1.544001
     6  O   -0.668098
     7  O   -0.668993
 Sum of Mulliken charges=   1.00000

 Dipole moment (field-independent basis, Debye):
    X=     3.1411    Y=     0.0010    Z=    -0.0088  Tot=     3.1411
 Quadrupole moment (field-independent basis, Debye-Ang):
   XX=   -66.5068   YY=    -8.8854   ZZ=   -58.2532
   XY=    -0.0570   XZ=    -0.0120   YZ=    -0.0073

 Normal termination of Gaussian 03 at Fri Jun 12 17:48:49 2015.
