 Gaussian 03, Revision E.01,
 Gaussian 03:  EM64T-G03RevE.01 11-Sep-2007

 ----------------------------------------------------
 # b3lyp/6-31+G(d,p) int=ultrafine pop=(ReadRadii,MK)
 ----------------------------------------------------

 ----------------------------------------
 mol_17.29.46.pdbccc_plusQ.z58628.zip.xyz
 ----------------------------------------
 Symbolic Z-matrix:
 Charge =  1 Multiplicity = 1

                         Standard orientation:
 ---------------------------------------------------------------------
 Center     Atomic     Atomic              Coordinates (Angstroms)
 Number     Number      Type              X           Y           Z
 ---------------------------------------------------------------------
    1          8             0       -3.257550    0.523484    0.000070
    2         15             0       -3.197941   -1.026887    0.001270
    3          8             0       -1.721952   -1.467678   -0.000270
    4         20             0        0.604389   -1.308039   -0.001200
    5          8             0        2.718149   -1.084931    0.785190
    6          8             0        0.567400    1.104751   -0.000410
    7          8             0        2.719169   -1.084671   -0.784690
    8         20             0        2.820480    0.997699    0.000930
    9         20             0       -1.436499    1.884122   -0.000640
 ---------------------------------------------------------------------

 SCF Done:  E(RB+HF-LYP) =  -2750.20946263     A.U. after    8 cycles

 The electronic state is 1-A.
 Alpha  occ. eigenvalues -- -145.53444-145.47936-145.44931 -77.30017 -19.28054
 Alpha  occ. eigenvalues --  -19.27376 -19.19855 -19.19850 -19.17772 -15.60346
 Alpha  occ. eigenvalues --  -15.54803 -15.51809 -12.73602 -12.73557 -12.73380
 Alpha  occ. eigenvalues --  -12.68011 -12.67984 -12.67912 -12.65051 -12.65014
 Alpha  occ. eigenvalues --  -12.64884  -6.75567  -4.92009  -4.91779  -4.91347
 Alpha  occ. eigenvalues --   -1.97565  -1.92107  -1.89193  -1.25425  -1.25311
 Alpha  occ. eigenvalues --   -1.24419  -1.20420  -1.19705  -1.19309  -1.17170
 Alpha  occ. eigenvalues --   -1.17033  -1.16718  -1.13819  -1.08286  -1.02337
 Alpha  occ. eigenvalues --   -0.92389  -0.83646  -0.67409  -0.56819  -0.52927
 Alpha  occ. eigenvalues --   -0.52650  -0.45514  -0.43656  -0.43295  -0.41903
 Alpha  occ. eigenvalues --   -0.41016  -0.40801  -0.37919  -0.37232  -0.36357
 Alpha  occ. eigenvalues --   -0.30426  -0.28822
 Alpha virt. eigenvalues --   -0.21314  -0.19843  -0.18020  -0.13562  -0.13447
 Alpha virt. eigenvalues --   -0.11660  -0.10863  -0.10478  -0.08645  -0.08277
 Alpha virt. eigenvalues --   -0.07160  -0.06881  -0.06489  -0.06240  -0.05653

 Mulliken atomic charges:
              1
     1  O   -0.714338
     2  P    0.663871
     3  O   -0.675087
     4  Ca   1.404543
     5  O   -0.650565
     6  O   -1.345005
     7  O   -0.650598
     8  Ca   1.443657
     9  Ca   1.523524
 Sum of Mulliken charges=   1.00000

 Dipole moment (field-independent basis, Debye):
    X=    -1.2156    Y=    11.9747    Z=    -0.0026  Tot=    12.0362
 Quadrupole moment (field-independent basis, Debye-Ang):
   XX=   -63.6407   YY=   -46.4860   ZZ=   -77.2665
   XY=    16.2950   XZ=     0.0181   YZ=     0.0151

 Normal termination of Gaussian 03 at Fri Jun 12 18:12:49 2015.
