 Gaussian 03, Revision E.01,
 Gaussian 03:  EM64T-G03RevE.01 11-Sep-2007

 ----------------------------------------------------
 # b3lyp/6-31+G(d,p) int=ultrafine pop=(ReadRadii,MK)
 ----------------------------------------------------

 -----------------------------------------
 mol_17.26.44.pdbcccc_plusQ.z58455.zip.xyz
 -----------------------------------------
 Symbolic Z-matrix:
 Charge =  1 Multiplicity = 1

                         Standard orientation:
 ---------------------------------------------------------------------
 Center     Atomic     Atomic              Coordinates (Angstroms)
 Number     Number      Type              X           Y           Z
 ---------------------------------------------------------------------
    1          8             0       -2.543190   -0.000059    1.244892
    2          8             0        2.378370   -0.000010   -1.015878
    3          8             0        2.633680    0.000020    0.531042
    4         20             0        1.441070    1.800490   -0.043868
    5         20             0        1.441130   -1.800510   -0.043758
    6         20             0       -2.534190   -0.000099   -1.021628
    7         15             0       -0.972820    0.000061    1.110502
    8          8             0       -0.757500    1.250121   -0.034488
    9          8             0       -0.757350   -1.249889   -0.034618
 ---------------------------------------------------------------------

 SCF Done:  E(RB+HF-LYP) =  -2750.19820980     A.U. after    7 cycles

 The electronic state is 1-A.
 Alpha  occ. eigenvalues -- -145.52890-145.49502-145.49499 -77.24302 -19.22795
 Alpha  occ. eigenvalues --  -19.22507 -19.21327 -19.21326 -19.19022 -15.59682
 Alpha  occ. eigenvalues --  -15.56363 -15.56362 -12.72865 -12.72860 -12.72848
 Alpha  occ. eigenvalues --  -12.69590 -12.69589 -12.69564 -12.69563 -12.69454
 Alpha  occ. eigenvalues --  -12.69452  -6.69590  -4.85970  -4.85894  -4.85454
 Alpha  occ. eigenvalues --   -1.96717  -1.93610  -1.93575  -1.24679  -1.23982
 Alpha  occ. eigenvalues --   -1.23942  -1.22276  -1.21281  -1.21229  -1.21053
 Alpha  occ. eigenvalues --   -1.21027  -1.20594  -1.06716  -1.05364  -0.99869
 Alpha  occ. eigenvalues --   -0.99599  -0.86449  -0.61784  -0.49598  -0.49237
 Alpha  occ. eigenvalues --   -0.48397  -0.46092  -0.44985  -0.43565  -0.42568
 Alpha  occ. eigenvalues --   -0.41981  -0.37838  -0.37836  -0.34589  -0.33872
 Alpha  occ. eigenvalues --   -0.32213  -0.31071
 Alpha virt. eigenvalues --   -0.20491  -0.17973  -0.17402  -0.13048  -0.12114
 Alpha virt. eigenvalues --   -0.11133  -0.09670  -0.08663  -0.08334  -0.07574
 Alpha virt. eigenvalues --   -0.06945  -0.06821  -0.06581  -0.06265  -0.05324

 Mulliken atomic charges:
              1
     1  O   -0.869922
     2  O   -0.659716
     3  O   -0.658135
     4  Ca   1.485202
     5  Ca   1.485213
     6  Ca   1.357274
     7  P    0.803826
     8  O   -0.971855
     9  O   -0.971887
 Sum of Mulliken charges=   1.00000

 Dipole moment (field-independent basis, Debye):
    X=    -1.3299    Y=    -0.0013    Z=    -8.1471  Tot=     8.2549
 Quadrupole moment (field-independent basis, Debye-Ang):
   XX=   -62.1231   YY=   -36.3365   ZZ=   -75.9290
   XY=     0.0013   XZ=    28.8156   YZ=    -0.0010

 Normal termination of Gaussian 03 at Fri Jun 12 18:00:52 2015.
