 Gaussian 03, Revision E.01,
 Gaussian 03:  EM64T-G03RevE.01 11-Sep-2007

 ----------------------------------------------------
 # b3lyp/6-31+G(d,p) int=ultrafine pop=(ReadRadii,MK)
 ----------------------------------------------------

 --------------------------------------
 mol_17.28.59.pdbc_plusQ.z58584.zip.xyz
 --------------------------------------
 Symbolic Z-matrix:
 Charge =  1 Multiplicity = 1

                         Standard orientation:
 ---------------------------------------------------------------------
 Center     Atomic     Atomic              Coordinates (Angstroms)
 Number     Number      Type              X           Y           Z
 ---------------------------------------------------------------------
    1          8             0        1.609646   -0.857616   -1.054431
    2          8             0        2.075569    0.111358    0.032859
    3         15             0       -0.043682   -1.069258   -1.493781
    4          8             0       -0.722199   -1.601133   -0.078351
    5          8             0       -0.653043    0.467228   -1.506331
    6         20             0        0.764597   -0.913012    1.588109
    7          8             0       -0.487747    0.995289    1.443649
    8         20             0       -2.165511    0.167807    0.259249
    9         20             0        0.704786    1.901098   -0.261981
 ---------------------------------------------------------------------

 SCF Done:  E(RB+HF-LYP) =  -2750.21031440     A.U. after    9 cycles

 The electronic state is 1-A.
 Alpha  occ. eigenvalues -- -145.50881-145.50028-145.49936 -77.26527 -19.28856
 Alpha  occ. eigenvalues --  -19.25486 -19.22979 -19.22663 -19.16498 -15.57715
 Alpha  occ. eigenvalues --  -15.56848 -15.56740 -12.70922 -12.70887 -12.70840
 Alpha  occ. eigenvalues --  -12.70044 -12.70025 -12.69991 -12.69949 -12.69905
 Alpha  occ. eigenvalues --  -12.69890  -6.71659  -4.88078  -4.87949  -4.87427
 Alpha  occ. eigenvalues --   -1.95016  -1.94121  -1.93970  -1.23108  -1.22765
 Alpha  occ. eigenvalues --   -1.22411  -1.22265  -1.21648  -1.21546  -1.21332
 Alpha  occ. eigenvalues --   -1.21271  -1.20946  -1.13422  -1.06910  -1.02253
 Alpha  occ. eigenvalues --   -0.93470  -0.91462  -0.65034  -0.55683  -0.52562
 Alpha  occ. eigenvalues --   -0.51447  -0.48221  -0.46986  -0.44110  -0.42125
 Alpha  occ. eigenvalues --   -0.39438  -0.38415  -0.36807  -0.36109  -0.35852
 Alpha  occ. eigenvalues --   -0.35064  -0.32611
 Alpha virt. eigenvalues --   -0.20668  -0.18365  -0.17721  -0.13894  -0.12895
 Alpha virt. eigenvalues --   -0.11290  -0.10810  -0.09497  -0.09162  -0.08164
 Alpha virt. eigenvalues --   -0.07388  -0.06424  -0.06166  -0.05861  -0.04923

 Mulliken atomic charges:
              1
     1  O   -0.455471
     2  O   -0.646493
     3  P    1.057896
     4  O   -1.044648
     5  O   -1.045392
     6  Ca   1.475456
     7  O   -1.252476
     8  Ca   1.418024
     9  Ca   1.493104
 Sum of Mulliken charges=   1.00000

 Dipole moment (field-independent basis, Debye):
    X=    -5.1089    Y=     5.0364    Z=     6.5039  Tot=     9.6833
 Quadrupole moment (field-independent basis, Debye-Ang):
   XX=   -52.5773   YY=   -57.2472   ZZ=   -75.8709
   XY=     3.8588   XZ=     7.1860   YZ=   -22.2604

 Normal termination of Gaussian 03 at Fri Jun 12 18:11:26 2015.
