 Gaussian 03, Revision E.01,
 Gaussian 03:  EM64T-G03RevE.01 11-Sep-2007

 ----------------------------------------------------
 # b3lyp/6-31+G(d,p) int=ultrafine pop=(ReadRadii,MK)
 ----------------------------------------------------

 ---------------------------------------
 mol_17.28.25.pdbcc_plusQ.z58548.zip.xyz
 ---------------------------------------
 Symbolic Z-matrix:
 Charge =  1 Multiplicity = 1

                         Standard orientation:
 ---------------------------------------------------------------------
 Center     Atomic     Atomic              Coordinates (Angstroms)
 Number     Number      Type              X           Y           Z
 ---------------------------------------------------------------------
    1          8             0        0.521341   -0.170368    1.304271
    2          8             0       -1.953528   -1.099429    0.828071
    3         20             0       -3.182809    0.272260   -0.369639
    4         15             0       -0.574478   -0.601359    0.280601
    5         20             0        2.319632   -1.231127   -0.177359
    6          8             0        0.073732   -1.563268   -0.734859
    7          8             0       -1.006359    0.833681   -0.443479
    8         20             0        1.115440    1.881422    0.176491
    9          8             0        2.811301    0.820543   -0.553859
 ---------------------------------------------------------------------

 SCF Done:  E(RB+HF-LYP) =  -2750.26904745     A.U. after    8 cycles

 The electronic state is 1-A.
 Alpha  occ. eigenvalues -- -145.53865-145.50377-145.49124 -77.31103 -19.24074
 Alpha  occ. eigenvalues --  -19.23760 -19.22032 -19.20905 -19.18583 -15.60749
 Alpha  occ. eigenvalues --  -15.57196 -15.55981 -12.73977 -12.73906 -12.73871
 Alpha  occ. eigenvalues --  -12.70425 -12.70409 -12.70285 -12.69207 -12.69180
 Alpha  occ. eigenvalues --  -12.69070  -6.75472  -4.91914  -4.91795  -4.91752
 Alpha  occ. eigenvalues --   -1.97903  -1.94311  -1.93222  -1.25677  -1.25488
 Alpha  occ. eigenvalues --   -1.25180  -1.22352  -1.21906  -1.21598  -1.20997
 Alpha  occ. eigenvalues --   -1.20839  -1.20345  -1.12685  -1.04552  -1.03715
 Alpha  occ. eigenvalues --   -1.02520  -0.91626  -0.62602  -0.54027  -0.53474
 Alpha  occ. eigenvalues --   -0.52651  -0.46947  -0.44750  -0.44047  -0.42410
 Alpha  occ. eigenvalues --   -0.41950  -0.39398  -0.38038  -0.37132  -0.36583
 Alpha  occ. eigenvalues --   -0.34892  -0.34624
 Alpha virt. eigenvalues --   -0.21757  -0.18350  -0.17058  -0.12958  -0.12129
 Alpha virt. eigenvalues --   -0.10103  -0.10039  -0.09182  -0.08497  -0.07817
 Alpha virt. eigenvalues --   -0.07106  -0.06541  -0.05572  -0.05317  -0.04891

 Mulliken atomic charges:
              1
     1  O   -1.038797
     2  O   -0.881409
     3  Ca   1.587325
     4  P    1.800495
     5  Ca   1.436598
     6  O   -0.890700
     7  O   -1.123542
     8  Ca   1.455796
     9  O   -1.345766
 Sum of Mulliken charges=   1.00000

 Dipole moment (field-independent basis, Debye):
    X=   -14.4742    Y=     4.6778    Z=    -0.7202  Tot=    15.2283
 Quadrupole moment (field-independent basis, Debye-Ang):
   XX=   -12.2508   YY=   -49.2435   ZZ=   -83.2992
   XY=   -32.1011   XZ=    20.4072   YZ=     7.3581

 Normal termination of Gaussian 03 at Fri Jun 12 18:08:58 2015.
