 Gaussian 03, Revision E.01,
 Gaussian 03:  EM64T-G03RevE.01 11-Sep-2007

 ----------------------------------------------------
 # b3lyp/6-31+G(d,p) int=ultrafine pop=(ReadRadii,MK)
 ----------------------------------------------------

 --------------------------------------
 mol_17.23.44.pdbc_plusQ.z58245.zip.xyz
 --------------------------------------
 Symbolic Z-matrix:
 Charge =  1 Multiplicity = 1

                         Standard orientation:
 ---------------------------------------------------------------------
 Center     Atomic     Atomic              Coordinates (Angstroms)
 Number     Number      Type              X           Y           Z
 ---------------------------------------------------------------------
    1          8             0       -1.309583   -2.499418    0.000000
    2         15             0       -1.305522   -0.960348    0.000000
    3          8             0       -2.613991   -0.139767    0.000000
    4         20             0       -1.931159    2.145232    0.000000
    5          8             0        0.000000    1.196711    0.000000
    6          8             0        0.309481    2.720561    0.000000
    7         20             0        2.200580    1.119179    0.000000
    8          8             0        2.517078   -1.023911    0.000000
    9         20             0        1.148527   -2.645820    0.000000
 ---------------------------------------------------------------------

 SCF Done:  E(RB+HF-LYP) =  -2750.13357237     A.U. after   10 cycles

 The electronic state is 1-A'.
 Alpha  occ. eigenvalues -- -145.53140-145.49946-145.45495 -77.27356 -19.26246
 Alpha  occ. eigenvalues --  -19.26052 -19.23332 -19.23102 -19.11534 -15.59922
 Alpha  occ. eigenvalues --  -15.56818 -15.52382 -12.73194 -12.73084 -12.73029
 Alpha  occ. eigenvalues --  -12.70069 -12.70038 -12.69861 -12.65654 -12.65563
 Alpha  occ. eigenvalues --  -12.65432  -6.72953  -4.89344  -4.89167  -4.88799
 Alpha  occ. eigenvalues --   -1.96946  -1.93925  -1.89676  -1.24778  -1.24748
 Alpha  occ. eigenvalues --   -1.24031  -1.21743  -1.21682  -1.20586  -1.17706
 Alpha  occ. eigenvalues --   -1.17667  -1.16588  -1.11543  -1.07223  -1.06377
 Alpha  occ. eigenvalues --   -0.86979  -0.85663  -0.64349  -0.53129  -0.52565
 Alpha  occ. eigenvalues --   -0.50282  -0.46701  -0.46422  -0.44211  -0.43746
 Alpha  occ. eigenvalues --   -0.43572  -0.35544  -0.34735  -0.31904  -0.31206
 Alpha  occ. eigenvalues --   -0.29797  -0.29514
 Alpha virt. eigenvalues --   -0.19998  -0.17693  -0.17324  -0.15028  -0.11890
 Alpha virt. eigenvalues --   -0.10334  -0.10272  -0.09992  -0.09109  -0.08530
 Alpha virt. eigenvalues --   -0.08204  -0.06886  -0.06465  -0.05837  -0.05330

 Mulliken atomic charges:
              1
     1  O   -0.581631
     2  P    0.576794
     3  O   -0.751162
     4  Ca   1.533766
     5  O   -0.638597
     6  O   -0.751993
     7  Ca   1.422424
     8  O   -1.221038
     9  Ca   1.411437
 Sum of Mulliken charges=   1.00000

 Dipole moment (field-independent basis, Debye):
    X=    -0.7669    Y=     3.5787    Z=     0.0000  Tot=     3.6600
 Quadrupole moment (field-independent basis, Debye-Ang):
   XX=   -60.1245   YY=   -29.5385   ZZ=   -73.8962
   XY=   -27.8043   XZ=     0.0000   YZ=     0.0000

 Normal termination of Gaussian 03 at Fri Jun 12 17:53:43 2015.
