 Gaussian 03, Revision E.01,
 Gaussian 03:  EM64T-G03RevE.01 11-Sep-2007

 ----------------------------------------------------
 # b3lyp/6-31+G(d,p) int=ultrafine pop=(ReadRadii,MK)
 ----------------------------------------------------

 --------------------------------------
 mol_17.27.4.pdbcc_plusQ.z58516.zip.xyz
 --------------------------------------
 Symbolic Z-matrix:
 Charge =  1 Multiplicity = 1

                         Standard orientation:
 ---------------------------------------------------------------------
 Center     Atomic     Atomic              Coordinates (Angstroms)
 Number     Number      Type              X           Y           Z
 ---------------------------------------------------------------------
    1          8             0        0.649293   -2.465002    0.195180
    2          8             0       -0.074805   -1.258670   -0.347580
    3         15             0       -1.120543   -0.716117    0.870430
    4          8             0       -1.461280    0.814433    0.193750
    5         20             0       -3.524832   -0.056972   -0.432690
    6         20             0        0.497753    2.035189    0.115190
    7          8             0        2.243521    1.081405   -0.887610
    8          8             0        2.348671    0.952824    0.672930
    9         20             0        2.385326   -1.091126   -0.265990
 ---------------------------------------------------------------------

 SCF Done:  E(RB+HF-LYP) =  -2749.99629166     A.U. after   10 cycles

 The electronic state is 1-A.
 Alpha  occ. eigenvalues -- -145.54618-145.50463-145.47582 -77.24678 -19.30521
 Alpha  occ. eigenvalues --  -19.25391 -19.23367 -19.22927 -19.22750 -15.61535
 Alpha  occ. eigenvalues --  -15.57321 -15.54486 -12.74743 -12.74709 -12.74634
 Alpha  occ. eigenvalues --  -12.70552 -12.70536 -12.70395 -12.67721 -12.67705
 Alpha  occ. eigenvalues --  -12.67547  -6.70540  -4.86985  -4.86642  -4.86318
 Alpha  occ. eigenvalues --   -1.98515  -1.94551  -1.91771  -1.26043  -1.25811
 Alpha  occ. eigenvalues --   -1.25714  -1.22710  -1.22158  -1.22043  -1.20258
 Alpha  occ. eigenvalues --   -1.19515  -1.19355  -1.14452  -1.05842  -1.05343
 Alpha  occ. eigenvalues --   -0.91316  -0.86654  -0.66634  -0.54279  -0.52646
 Alpha  occ. eigenvalues --   -0.51653  -0.47069  -0.46245  -0.44971  -0.44731
 Alpha  occ. eigenvalues --   -0.43379  -0.41104  -0.35049  -0.34180  -0.33443
 Alpha  occ. eigenvalues --   -0.31468  -0.27466
 Alpha virt. eigenvalues --   -0.22451  -0.18634  -0.15719  -0.14495  -0.13810
 Alpha virt. eigenvalues --   -0.11988  -0.11888  -0.10291  -0.09184  -0.08749
 Alpha virt. eigenvalues --   -0.08166  -0.07471  -0.07077  -0.06402  -0.05615

 Mulliken atomic charges:
              1
     1  O   -0.558714
     2  O   -0.319576
     3  P    0.102839
     4  O   -0.829942
     5  Ca   0.997693
     6  Ca   1.468587
     7  O   -0.659226
     8  O   -0.661189
     9  Ca   1.459530
 Sum of Mulliken charges=   1.00000

 Dipole moment (field-independent basis, Debye):
    X=    -5.9018    Y=     5.7543    Z=    -3.2911  Tot=     8.8755
 Quadrupole moment (field-independent basis, Debye-Ang):
   XX=   -25.0011   YY=   -64.7172   ZZ=   -82.1407
   XY=   -21.0590   XZ=     5.0911   YZ=     5.6099

 Normal termination of Gaussian 03 at Fri Jun 12 18:07:01 2015.
