 Gaussian 03, Revision E.01,
 Gaussian 03:  EM64T-G03RevE.01 11-Sep-2007

 ----------------------------------------------------
 # b3lyp/6-31+G(d,p) int=ultrafine pop=(ReadRadii,MK)
 ----------------------------------------------------

 ----------------------------------------
 mol_17.24.18.pdbccc_plusQ.z58273.zip.xyz
 ----------------------------------------
 Symbolic Z-matrix:
 Charge =  1 Multiplicity = 1

                         Standard orientation:
 ---------------------------------------------------------------------
 Center     Atomic     Atomic              Coordinates (Angstroms)
 Number     Number      Type              X           Y           Z
 ---------------------------------------------------------------------
    1          8             0        3.592019    0.534530   -0.002551
    2          8             0       -0.624881    1.104931   -0.000571
    3         20             0        1.481439    1.568710    0.001919
    4         15             0        3.250199   -0.966060   -0.001911
    5          8             0        1.687109   -1.039690    0.003309
    6         20             0       -0.679481   -1.277899    0.000719
    7         20             0       -2.871441    1.037881   -0.001511
    8          8             0       -2.787181   -1.055869   -0.783981
    9          8             0       -2.787481   -1.054269    0.784559
 ---------------------------------------------------------------------

 SCF Done:  E(RB+HF-LYP) =  -2750.21059023     A.U. after    9 cycles

 The electronic state is 1-A.
 Alpha  occ. eigenvalues -- -145.52558-145.47910-145.45921 -77.31434 -19.29697
 Alpha  occ. eigenvalues --  -19.28905 -19.20247 -19.20242 -19.17091 -15.59457
 Alpha  occ. eigenvalues --  -15.54777 -15.52785 -12.72722 -12.72680 -12.72478
 Alpha  occ. eigenvalues --  -12.67987 -12.67957 -12.67886 -12.66022 -12.65984
 Alpha  occ. eigenvalues --  -12.65869  -6.77034  -4.93464  -4.93239  -4.92820
 Alpha  occ. eigenvalues --   -1.96690  -1.92081  -1.90153  -1.24614  -1.24613
 Alpha  occ. eigenvalues --   -1.23575  -1.20507  -1.19690  -1.19277  -1.18004
 Alpha  occ. eigenvalues --   -1.17952  -1.17607  -1.15369  -1.09607  -1.02813
 Alpha  occ. eigenvalues --   -0.91871  -0.84020  -0.68625  -0.57621  -0.54924
 Alpha  occ. eigenvalues --   -0.54235  -0.46667  -0.45219  -0.43701  -0.42880
 Alpha  occ. eigenvalues --   -0.41972  -0.41273  -0.37523  -0.36618  -0.35912
 Alpha  occ. eigenvalues --   -0.30789  -0.29139
 Alpha virt. eigenvalues --   -0.21351  -0.20119  -0.17699  -0.14554  -0.13028
 Alpha virt. eigenvalues --   -0.11137  -0.10813  -0.10362  -0.09099  -0.08477
 Alpha virt. eigenvalues --   -0.07857  -0.07111  -0.06764  -0.06248  -0.05623

 Mulliken atomic charges:
              1
     1  O   -0.655684
     2  O   -1.322838
     3  Ca   1.495970
     4  P    0.680108
     5  O   -0.739618
     6  Ca   1.393308
     7  Ca   1.457248
     8  O   -0.654310
     9  O   -0.654184
 Sum of Mulliken charges=   1.00000

 Dipole moment (field-independent basis, Debye):
    X=     1.5301    Y=     9.0234    Z=     0.0046  Tot=     9.1522
 Quadrupole moment (field-independent basis, Debye-Ang):
   XX=   -64.0401   YY=   -51.7209   ZZ=   -77.1273
   XY=   -21.8863   XZ=     0.0611   YZ=     0.0240

 Normal termination of Gaussian 03 at Fri Jun 12 17:55:08 2015.
