 Gaussian 03, Revision E.01,
 Gaussian 03:  EM64T-G03RevE.01 11-Sep-2007

 ----------------------------------------------------
 # b3lyp/6-31+G(d,p) int=ultrafine pop=(ReadRadii,MK)
 ----------------------------------------------------

 ------------------------------------------
 mol_16.5.19.pdbcc_plusQ.out.z51624.zip.xyz
 ------------------------------------------
 Symbolic Z-matrix:
 Charge =  1 Multiplicity = 1

                         Standard orientation:
 ---------------------------------------------------------------------
 Center     Atomic     Atomic              Coordinates (Angstroms)
 Number     Number      Type              X           Y           Z
 ---------------------------------------------------------------------
    1          8             0       -3.045000   -1.202820   -0.000351
    2         15             0       -3.885731    0.097430   -0.001331
    3          8             0       -2.880741    1.273980    0.000119
    4         20             0       -0.960321   -0.104019    0.002469
    5          8             0        1.269909   -0.099968   -0.000641
    6         20             0        3.452359    0.002113   -0.002181
    7          8             0        5.711479    0.100894    0.002649
 ---------------------------------------------------------------------

 SCF Done:  E(RB+HF-LYP) =  -1997.15363484     A.U. after   25 cycles

 The electronic state is 1-A.
 Alpha  occ. eigenvalues -- -145.56126-145.52992 -77.30249 -19.34126 -19.28138
 Alpha  occ. eigenvalues --  -19.27968 -19.26919 -15.63032 -15.59891 -12.76320
 Alpha  occ. eigenvalues --  -12.76289 -12.76015 -12.73167 -12.73106 -12.72923
 Alpha  occ. eigenvalues --   -6.75963  -4.92392  -4.92135  -4.91793  -2.00160
 Alpha  occ. eigenvalues --   -1.97112  -1.28140  -1.27985  -1.27024  -1.25096
 Alpha  occ. eigenvalues --   -1.24748  -1.24635  -1.14302  -1.08357  -1.02869
 Alpha  occ. eigenvalues --   -0.99628  -0.66417  -0.55276  -0.53473  -0.52865
 Alpha  occ. eigenvalues --   -0.46996  -0.44905  -0.44717  -0.44693  -0.43464
 Alpha  occ. eigenvalues --   -0.42907  -0.42023  -0.40794
 Alpha virt. eigenvalues --   -0.39264  -0.22018  -0.19879  -0.17880  -0.13812
 Alpha virt. eigenvalues --   -0.13762  -0.11643  -0.10902  -0.09550  -0.07422
 Alpha virt. eigenvalues --   -0.07315  -0.06676  -0.05701  -0.05531  -0.05384

 Mulliken atomic charges:
              1
     1  O   -0.602579
     2  P    0.576051
     3  O   -0.619624
     4  Ca   1.532074
     5  O   -0.945238
     6  Ca   1.443464
     7  O   -0.384148
 Sum of Mulliken charges=   1.00000

 Dipole moment (field-independent basis, Debye):
    X=     5.5471    Y=    -0.5059    Z=    -0.0044  Tot=     5.5701
 Quadrupole moment (field-independent basis, Debye-Ang):
   XX=   -47.2853   YY=   -62.7928   ZZ=   -54.5656
   XY=    -1.1248   XZ=    -0.0984   YZ=    -0.0112

 Normal termination of Gaussian 03 at Fri Jun 12 17:50:37 2015.
