 Gaussian 03, Revision E.01,
 Gaussian 03:  EM64T-G03RevE.01 11-Sep-2007

 ----------------------------------------------------
 # b3lyp/6-31+G(d,p) int=ultrafine pop=(ReadRadii,MK)
 ----------------------------------------------------

 ----------------------------------------
 mol_17.25.58.pdbccc_plusQ.z58362.zip.xyz
 ----------------------------------------
 Symbolic Z-matrix:
 Charge =  1 Multiplicity = 1

                         Standard orientation:
 ---------------------------------------------------------------------
 Center     Atomic     Atomic              Coordinates (Angstroms)
 Number     Number      Type              X           Y           Z
 ---------------------------------------------------------------------
    1          8             0        3.138900   -0.536190   -0.761229
    2          8             0        3.131340   -0.534930    0.771671
    3         15             0        2.849749    1.020180    0.002431
    4         20             0       -3.349080   -0.851243    0.002781
    5          8             0        1.296849    1.093459   -0.005469
    6          8             0       -3.233581    1.275907    0.002361
    7         20             0       -1.080801    1.427498   -0.002479
    8          8             0       -1.093890   -0.947592   -0.001899
    9         20             0        0.996721   -1.481651   -0.004299
 ---------------------------------------------------------------------

 SCF Done:  E(RB+HF-LYP) =  -2750.13248262     A.U. after    9 cycles

 The electronic state is 1-A.
 Alpha  occ. eigenvalues -- -145.52146-145.47055-145.45745 -77.33858 -19.37000
 Alpha  occ. eigenvalues --  -19.36987 -19.29670 -19.17038 -19.10771 -15.59007
 Alpha  occ. eigenvalues --  -15.53954 -15.52659 -12.72252 -12.72238 -12.72052
 Alpha  occ. eigenvalues --  -12.67196 -12.67111 -12.67033 -12.65928 -12.65838
 Alpha  occ. eigenvalues --  -12.65707  -6.79172  -4.95531  -4.95447  -4.94936
 Alpha  occ. eigenvalues --   -1.96221  -1.91249  -1.90054  -1.28429  -1.24006
 Alpha  occ. eigenvalues --   -1.23838  -1.22359  -1.19122  -1.18896  -1.18221
 Alpha  occ. eigenvalues --   -1.18090  -1.17447  -1.17177  -1.12878  -1.01036
 Alpha  occ. eigenvalues --   -0.91708  -0.84708  -0.73767  -0.61686  -0.60230
 Alpha  occ. eigenvalues --   -0.58888  -0.54724  -0.49820  -0.47609  -0.44041
 Alpha  occ. eigenvalues --   -0.43353  -0.37879  -0.36790  -0.35762  -0.30232
 Alpha  occ. eigenvalues --   -0.28788  -0.28457
 Alpha virt. eigenvalues --   -0.20340  -0.19645  -0.17747  -0.17264  -0.15283
 Alpha virt. eigenvalues --   -0.12027  -0.11234  -0.10210  -0.09967  -0.09649
 Alpha virt. eigenvalues --   -0.09350  -0.08174  -0.07379  -0.07021  -0.06561

 Mulliken atomic charges:
              1
     1  O   -0.374810
     2  O   -0.374861
     3  P    0.841347
     4  Ca   1.346347
     5  O   -0.794558
     6  O   -1.139898
     7  Ca   1.337043
     8  O   -1.319293
     9  Ca   1.478683
 Sum of Mulliken charges=   1.00000

 Dipole moment (field-independent basis, Debye):
    X=    -0.4583    Y=    -7.5348    Z=    -0.0234  Tot=     7.5488
 Quadrupole moment (field-independent basis, Debye-Ang):
   XX=   -65.3571   YY=   -56.0194   ZZ=   -75.5970
   XY=    26.3181   XZ=    -0.0555   YZ=     0.0038

 Normal termination of Gaussian 03 at Fri Jun 12 17:58:53 2015.
