 Gaussian 03, Revision E.01,
 Gaussian 03:  EM64T-G03RevE.01 11-Sep-2007

 ----------------------------------------------------
 # b3lyp/6-31+G(d,p) int=ultrafine pop=(ReadRadii,MK)
 ----------------------------------------------------

 --------------------------------------
 mol_17.22.47.pdbc_plusQ.z58197.zip.xyz
 --------------------------------------
 Symbolic Z-matrix:
 Charge =  1 Multiplicity = 1

                         Standard orientation:
 ---------------------------------------------------------------------
 Center     Atomic     Atomic              Coordinates (Angstroms)
 Number     Number      Type              X           Y           Z
 ---------------------------------------------------------------------
    1          8             0       -0.791320    2.258271    0.000000
    2          8             0        1.603280    0.962300    0.000000
    3          8             0        3.012840    1.425300    0.000000
    4         20             0        2.919269   -0.965320    0.000000
    5          8             0        1.192869   -2.230550    0.000000
    6         15             0        0.000000    0.942331    0.000000
    7          8             0       -2.349240   -0.409698    0.000000
    8         20             0       -0.964921   -2.139029    0.000000
    9         20             0       -3.021720    1.595352    0.000000
 ---------------------------------------------------------------------

 SCF Done:  E(RB+HF-LYP) =  -2750.04739543     A.U. after   12 cycles

 The electronic state is 1-A'.
 Alpha  occ. eigenvalues -- -145.53180-145.47362-145.44417 -77.30240 -19.33372
 Alpha  occ. eigenvalues --  -19.28083 -19.26219 -19.15368 -19.11274 -15.59999
 Alpha  occ. eigenvalues --  -15.54262 -15.51417 -12.73247 -12.73169 -12.73096
 Alpha  occ. eigenvalues --  -12.67523 -12.67469 -12.67295 -12.64679 -12.64645
 Alpha  occ. eigenvalues --  -12.64405  -6.75610  -4.91974  -4.91831  -4.91450
 Alpha  occ. eigenvalues --   -1.97080  -1.91515  -1.88833  -1.24820  -1.24710
 Alpha  occ. eigenvalues --   -1.23926  -1.21154  -1.19424  -1.18422  -1.16874
 Alpha  occ. eigenvalues --   -1.16727  -1.16493  -1.15506  -1.11437  -0.96495
 Alpha  occ. eigenvalues --   -0.89537  -0.85318  -0.67653  -0.58225  -0.55095
 Alpha  occ. eigenvalues --   -0.54030  -0.49041  -0.48227  -0.42195  -0.36376
 Alpha  occ. eigenvalues --   -0.35832  -0.35187  -0.33380  -0.32328  -0.31407
 Alpha  occ. eigenvalues --   -0.29548  -0.29089
 Alpha virt. eigenvalues --   -0.21003  -0.19353  -0.16633  -0.14667  -0.12892
 Alpha virt. eigenvalues --   -0.12601  -0.11562  -0.10244  -0.09208  -0.08144
 Alpha virt. eigenvalues --   -0.07978  -0.07105  -0.06522  -0.05883  -0.05276

 Mulliken atomic charges:
              1
     1  O   -0.677469
     2  O   -0.280957
     3  O   -0.533676
     4  Ca   1.417503
     5  O   -1.256006
     6  P    0.652715
     7  O   -1.186123
     8  Ca   1.402842
     9  Ca   1.461173
 Sum of Mulliken charges=   1.00000

 Dipole moment (field-independent basis, Debye):
    X=    -7.6621    Y=    -0.4047    Z=     0.0000  Tot=     7.6728
 Quadrupole moment (field-independent basis, Debye-Ang):
   XX=    -6.6347   YY=   -65.0155   ZZ=   -74.7203
   XY=   -36.6249   XZ=     0.0000   YZ=     0.0000

 Normal termination of Gaussian 03 at Fri Jun 12 17:51:00 2015.
