 Gaussian 03, Revision E.01,
 Gaussian 03:  EM64T-G03RevE.01 11-Sep-2007

 ----------------------------------------------------
 # b3lyp/6-31+G(d,p) int=ultrafine pop=(ReadRadii,MK)
 ----------------------------------------------------

 --------------------------------------
 mol_17.27.13.pdbc_plusQ.z58480.zip.xyz
 --------------------------------------
 Symbolic Z-matrix:
 Charge =  1 Multiplicity = 1

                         Standard orientation:
 ---------------------------------------------------------------------
 Center     Atomic     Atomic              Coordinates (Angstroms)
 Number     Number      Type              X           Y           Z
 ---------------------------------------------------------------------
    1          8             0       -3.128110   -0.533845    0.775780
    2          8             0       -3.141870   -0.536735   -0.757120
    3         20             0       -0.996729   -1.482033   -0.007020
    4          8             0        1.093860   -0.947690   -0.003130
    5         20             0        3.349170   -0.850988    0.004250
    6         15             0       -2.849492    1.020285    0.003750
    7          8             0       -1.296652    1.093337   -0.010890
    8          8             0        3.233248    1.276102    0.004350
    9         20             0        1.080488    1.427340   -0.003640
 ---------------------------------------------------------------------

 SCF Done:  E(RB+HF-LYP) =  -2750.13248155     A.U. after    9 cycles

 The electronic state is 1-A.
 Alpha  occ. eigenvalues -- -145.52149-145.47056-145.45740 -77.33856 -19.37007
 Alpha  occ. eigenvalues --  -19.36981 -19.29668 -19.17038 -19.10770 -15.59011
 Alpha  occ. eigenvalues --  -15.53955 -15.52654 -12.72255 -12.72242 -12.72056
 Alpha  occ. eigenvalues --  -12.67197 -12.67111 -12.67033 -12.65923 -12.65833
 Alpha  occ. eigenvalues --  -12.65702  -6.79171  -4.95530  -4.95445  -4.94934
 Alpha  occ. eigenvalues --   -1.96224  -1.91249  -1.90050  -1.28430  -1.24009
 Alpha  occ. eigenvalues --   -1.23840  -1.22363  -1.19122  -1.18896  -1.18221
 Alpha  occ. eigenvalues --   -1.18086  -1.17443  -1.17175  -1.12876  -1.01039
 Alpha  occ. eigenvalues --   -0.91707  -0.84708  -0.73767  -0.61687  -0.60231
 Alpha  occ. eigenvalues --   -0.58887  -0.54726  -0.49819  -0.47611  -0.44039
 Alpha  occ. eigenvalues --   -0.43354  -0.37879  -0.36789  -0.35761  -0.30231
 Alpha  occ. eigenvalues --   -0.28787  -0.28456
 Alpha virt. eigenvalues --   -0.20342  -0.19646  -0.17748  -0.17263  -0.15281
 Alpha virt. eigenvalues --   -0.12027  -0.11232  -0.10209  -0.09968  -0.09649
 Alpha virt. eigenvalues --   -0.09349  -0.08174  -0.07378  -0.07021  -0.06561

 Mulliken atomic charges:
              1
     1  O   -0.374827
     2  O   -0.374801
     3  Ca   1.478745
     4  O   -1.319314
     5  Ca   1.346354
     6  P    0.841308
     7  O   -0.794558
     8  O   -1.139894
     9  Ca   1.336987
 Sum of Mulliken charges=   1.00000

 Dipole moment (field-independent basis, Debye):
    X=     0.4579    Y=    -7.5383    Z=    -0.0376  Tot=     7.5523
 Quadrupole moment (field-independent basis, Debye-Ang):
   XX=   -65.3442   YY=   -56.0211   ZZ=   -75.5966
   XY=   -26.3115   XZ=     0.0785   YZ=     0.0155

 Normal termination of Gaussian 03 at Fri Jun 12 18:02:51 2015.
