 Gaussian 03, Revision E.01,
 Gaussian 03:  EM64T-G03RevE.01 11-Sep-2007

 ----------------------------------------------------
 # b3lyp/6-31+G(d,p) int=ultrafine pop=(ReadRadii,MK)
 ----------------------------------------------------

 ----------------------------------------
 mol_17.28.18.pdbccc_plusQ.z58540.zip.xyz
 ----------------------------------------
 Symbolic Z-matrix:
 Charge =  1 Multiplicity = 1

                         Standard orientation:
 ---------------------------------------------------------------------
 Center     Atomic     Atomic              Coordinates (Angstroms)
 Number     Number      Type              X           Y           Z
 ---------------------------------------------------------------------
    1          8             0        2.919711    0.752249   -0.499181
    2          8             0        2.550461    0.853049    1.021859
    3          8             0       -2.234789   -1.476300    0.049959
    4          8             0       -1.430479    0.876230   -0.483831
    5         15             0       -1.116929   -0.811340   -0.883681
    6         20             0        0.796662    1.500549   -0.259021
    7         20             0        2.491771   -1.270011    0.335989
    8          8             0        0.330851   -0.933311   -0.167851
    9         20             0       -3.305039    0.349200    0.617409
 ---------------------------------------------------------------------

 SCF Done:  E(RB+HF-LYP) =  -2750.19787910     A.U. after    7 cycles

 The electronic state is 1-A.
 Alpha  occ. eigenvalues -- -145.54445-145.49696-145.46284 -77.24440 -19.21821
 Alpha  occ. eigenvalues --  -19.21258 -19.20868 -19.20695 -19.20297 -15.61305
 Alpha  occ. eigenvalues --  -15.56497 -15.53194 -12.74536 -12.74443 -12.74434
 Alpha  occ. eigenvalues --  -12.69708 -12.69683 -12.69625 -12.66430 -12.66418
 Alpha  occ. eigenvalues --  -12.66245  -6.69515  -4.85924  -4.85840  -4.85330
 Alpha  occ. eigenvalues --   -1.98417  -1.93679  -1.90549  -1.26081  -1.25903
 Alpha  occ. eigenvalues --   -1.25555  -1.21806  -1.21195  -1.21081  -1.18458
 Alpha  occ. eigenvalues --   -1.18292  -1.18019  -1.06928  -1.03493  -1.01163
 Alpha  occ. eigenvalues --   -0.99570  -0.84592  -0.62305  -0.50979  -0.50112
 Alpha  occ. eigenvalues --   -0.47448  -0.44504  -0.44195  -0.42648  -0.41940
 Alpha  occ. eigenvalues --   -0.40761  -0.38758  -0.37802  -0.37527  -0.31539
 Alpha  occ. eigenvalues --   -0.30270  -0.29484
 Alpha virt. eigenvalues --   -0.22202  -0.17987  -0.15355  -0.13644  -0.12565
 Alpha virt. eigenvalues --   -0.11292  -0.10065  -0.08765  -0.08446  -0.07266
 Alpha virt. eigenvalues --   -0.07171  -0.05937  -0.05675  -0.05615  -0.05081

 Mulliken atomic charges:
              1
     1  O   -0.653247
     2  O   -0.655944
     3  O   -0.860173
     4  O   -1.061333
     5  P    0.901486
     6  Ca   1.454630
     7  Ca   1.476013
     8  O   -1.013253
     9  Ca   1.411820
 Sum of Mulliken charges=   1.00000

 Dipole moment (field-independent basis, Debye):
    X=    -6.9212    Y=     1.1525    Z=     4.6547  Tot=     8.4201
 Quadrupole moment (field-independent basis, Debye-Ang):
   XX=   -19.3749   YY=   -60.5483   ZZ=   -78.4350
   XY=   -41.8865   XZ=   -14.9328   YZ=    -4.6334

 Normal termination of Gaussian 03 at Fri Jun 12 18:08:14 2015.
