 Gaussian 03, Revision E.01,
 Gaussian 03:  EM64T-G03RevE.01 11-Sep-2007

 ----------------------------------------------------
 # b3lyp/6-31+G(d,p) int=ultrafine pop=(ReadRadii,MK)
 ----------------------------------------------------

 ------------------------------------------
 mol_16.4.13.pdbcc_plusQ.out.z51564.zip.xyz
 ------------------------------------------
 Symbolic Z-matrix:
 Charge =  1 Multiplicity = 1

                         Standard orientation:
 ---------------------------------------------------------------------
 Center     Atomic     Atomic              Coordinates (Angstroms)
 Number     Number      Type              X           Y           Z
 ---------------------------------------------------------------------
    1          8             0        2.160680   -1.048980    0.765343
    2          8             0        2.162240   -1.048890   -0.764527
    3         15             0        3.074691    0.271970    0.001333
    4          8             0        2.047121    1.417890    0.000463
    5         20             0        0.110211    0.067431   -0.001517
    6          8             0       -2.070039    0.024881   -0.004217
    7         20             0       -4.136229   -0.009369    0.001693
 ---------------------------------------------------------------------

 SCF Done:  E(RB+HF-LYP) =  -1997.23311527     A.U. after    8 cycles

 The electronic state is 1-A.
 Alpha  occ. eigenvalues -- -145.59693-145.47158 -77.28032 -19.31644 -19.31619
 Alpha  occ. eigenvalues --  -19.23411 -19.17989 -15.66447 -15.54054 -12.79669
 Alpha  occ. eigenvalues --  -12.79669 -12.79530 -12.67315 -12.67283 -12.67090
 Alpha  occ. eigenvalues --   -6.73462  -4.89831  -4.89743  -4.89208  -2.03293
 Alpha  occ. eigenvalues --   -1.91377  -1.30802  -1.30800  -1.29886  -1.23032
 Alpha  occ. eigenvalues --   -1.19314  -1.19114  -1.17487  -1.07231  -0.95538
 Alpha  occ. eigenvalues --   -0.92165  -0.67739  -0.55430  -0.54732  -0.53186
 Alpha  occ. eigenvalues --   -0.48932  -0.43244  -0.41494  -0.39200  -0.38021
 Alpha  occ. eigenvalues --   -0.37921  -0.36264  -0.36233
 Alpha virt. eigenvalues --   -0.26533  -0.16464  -0.16435  -0.15550  -0.15149
 Alpha virt. eigenvalues --   -0.12333  -0.12130  -0.08636  -0.08575  -0.08079
 Alpha virt. eigenvalues --   -0.06180  -0.05975  -0.05790  -0.05294  -0.04757

 Mulliken atomic charges:
              1
     1  O   -0.387895
     2  O   -0.388230
     3  P    0.691398
     4  O   -0.703147
     5  Ca   1.486194
     6  O   -1.179387
     7  Ca   1.481067
 Sum of Mulliken charges=   1.00000

 Dipole moment (field-independent basis, Debye):
    X=   -21.7870    Y=     0.0846    Z=     0.0288  Tot=    21.7872
 Quadrupole moment (field-independent basis, Debye-Ang):
   XX=    44.8503   YY=   -65.8640   ZZ=   -56.6695
   XY=     1.5629   XZ=    -0.0992   YZ=    -0.0016

 Normal termination of Gaussian 03 at Fri Jun 12 17:46:27 2015.
