 Gaussian 03, Revision E.01,
 Gaussian 03:  EM64T-G03RevE.01 11-Sep-2007

 ----------------------------------------------------
 # b3lyp/6-31+G(d,p) int=ultrafine pop=(ReadRadii,MK)
 ----------------------------------------------------

 -----------------------------------------
 mol_17.26.54.pdbcccc_plusQ.z58466.zip.xyz
 -----------------------------------------
 Symbolic Z-matrix:
 Charge =  1 Multiplicity = 1

                         Standard orientation:
 ---------------------------------------------------------------------
 Center     Atomic     Atomic              Coordinates (Angstroms)
 Number     Number      Type              X           Y           Z
 ---------------------------------------------------------------------
    1          8             0        1.687148   -1.040770   -0.000361
    2          8             0       -2.787522   -1.054866    0.784779
    3          8             0       -2.787982   -1.054806   -0.784411
    4         20             0       -2.870629    1.038105    0.000319
    5          8             0       -0.624669    1.105112    0.000109
    6         20             0       -0.679892   -1.278208   -0.000441
    7         15             0        3.250298   -0.966292    0.000429
    8          8             0        3.591340    0.534558    0.000539
    9         20             0        1.481471    1.569130   -0.000461
 ---------------------------------------------------------------------

 SCF Done:  E(RB+HF-LYP) =  -2750.21059106     A.U. after    9 cycles

 The electronic state is 1-A.
 Alpha  occ. eigenvalues -- -145.52559-145.47904-145.45930 -77.31433 -19.29693
 Alpha  occ. eigenvalues --  -19.28903 -19.20255 -19.20250 -19.17095 -15.59458
 Alpha  occ. eigenvalues --  -15.54772 -15.52793 -12.72723 -12.72681 -12.72479
 Alpha  occ. eigenvalues --  -12.67982 -12.67952 -12.67881 -12.66030 -12.65992
 Alpha  occ. eigenvalues --  -12.65878  -6.77032  -4.93463  -4.93237  -4.92819
 Alpha  occ. eigenvalues --   -1.96691  -1.92077  -1.90160  -1.24615  -1.24613
 Alpha  occ. eigenvalues --   -1.23577  -1.20504  -1.19686  -1.19274  -1.18006
 Alpha  occ. eigenvalues --   -1.17959  -1.17613  -1.15364  -1.09601  -1.02799
 Alpha  occ. eigenvalues --   -0.91876  -0.84036  -0.68622  -0.57618  -0.54917
 Alpha  occ. eigenvalues --   -0.54229  -0.46662  -0.45214  -0.43697  -0.42878
 Alpha  occ. eigenvalues --   -0.41967  -0.41270  -0.37528  -0.36624  -0.35918
 Alpha  occ. eigenvalues --   -0.30800  -0.29152
 Alpha virt. eigenvalues --   -0.21351  -0.20121  -0.17697  -0.14555  -0.13030
 Alpha virt. eigenvalues --   -0.11137  -0.10817  -0.10363  -0.09100  -0.08476
 Alpha virt. eigenvalues --   -0.07858  -0.07110  -0.06764  -0.06248  -0.05628

 Mulliken atomic charges:
              1
     1  O   -0.739592
     2  O   -0.654187
     3  O   -0.654248
     4  Ca   1.457036
     5  O   -1.322806
     6  Ca   1.393408
     7  P    0.680192
     8  O   -0.655826
     9  Ca   1.496022
 Sum of Mulliken charges=   1.00000

 Dipole moment (field-independent basis, Debye):
    X=     1.5364    Y=     9.0251    Z=    -0.0048  Tot=     9.1550
 Quadrupole moment (field-independent basis, Debye-Ang):
   XX=   -64.0776   YY=   -51.7035   ZZ=   -77.1284
   XY=   -21.8695   XZ=    -0.0097   YZ=    -0.0006

 Normal termination of Gaussian 03 at Fri Jun 12 18:02:11 2015.
