 Gaussian 03, Revision E.01,
 Gaussian 03:  EM64T-G03RevE.01 11-Sep-2007

 ----------------------------------------------------
 # b3lyp/6-31+G(d,p) int=ultrafine pop=(ReadRadii,MK)
 ----------------------------------------------------

 -----------------------------------------
 mol_16.4.22.pdbc_plusQ.out.z51573.zip.xyz
 -----------------------------------------
 Symbolic Z-matrix:
 Charge =  1 Multiplicity = 1

                         Standard orientation:
 ---------------------------------------------------------------------
 Center     Atomic     Atomic              Coordinates (Angstroms)
 Number     Number      Type              X           Y           Z
 ---------------------------------------------------------------------
    1          8             0        1.712622    0.000298   -0.785619
    2          8             0        1.712910   -0.000156    0.786424
    3          8             0       -1.442124   -1.273744    0.000527
    4         15             0       -2.320278   -0.000605    0.000356
    5          8             0       -1.442618    1.273072   -0.001011
    6         20             0        0.762429   -1.858003   -0.000447
    7         20             0        0.761464    1.858669    0.000052
 ---------------------------------------------------------------------

 SCF Done:  E(RB+HF-LYP) =  -1997.33372398     A.U. after    6 cycles

 The electronic state is 1-A.
 Alpha  occ. eigenvalues -- -145.53251-145.53238 -77.30156 -19.27969 -19.27915
 Alpha  occ. eigenvalues --  -19.25622 -19.25546 -15.60097 -15.60086 -12.73312
 Alpha  occ. eigenvalues --  -12.73300 -12.73294 -12.73282 -12.73211 -12.73200
 Alpha  occ. eigenvalues --   -6.75637  -4.92077  -4.91861  -4.91417  -1.97235
 Alpha  occ. eigenvalues --   -1.97207  -1.25766  -1.24804  -1.24789  -1.24723
 Alpha  occ. eigenvalues --   -1.24722  -1.24301  -1.13910  -1.08540  -1.08259
 Alpha  occ. eigenvalues --   -0.89515  -0.67696  -0.57269  -0.52811  -0.52588
 Alpha  occ. eigenvalues --   -0.48998  -0.47950  -0.46124  -0.45748  -0.43886
 Alpha  occ. eigenvalues --   -0.40696  -0.37189  -0.34161
 Alpha virt. eigenvalues --   -0.20456  -0.19848  -0.19631  -0.14475  -0.11367
 Alpha virt. eigenvalues --   -0.11278  -0.10320  -0.09665  -0.09033  -0.07376
 Alpha virt. eigenvalues --   -0.07214  -0.06432  -0.05961  -0.05214  -0.04857

 Mulliken atomic charges:
              1
     1  O   -0.669259
     2  O   -0.667768
     3  O   -0.710268
     4  P    0.668856
     5  O   -0.709675
     6  Ca   1.543942
     7  Ca   1.544173
 Sum of Mulliken charges=   1.00000

 Dipole moment (field-independent basis, Debye):
    X=     3.1494    Y=     0.0098    Z=     0.0027  Tot=     3.1494
 Quadrupole moment (field-independent basis, Debye-Ang):
   XX=   -66.4797   YY=    -8.8728   ZZ=   -58.2525
   XY=    -0.0143   XZ=     0.0022   YZ=     0.0160

 Normal termination of Gaussian 03 at Fri Jun 12 17:48:08 2015.
