 Gaussian 03, Revision E.01,
 Gaussian 03:  EM64T-G03RevE.01 11-Sep-2007

 ----------------------------------------------------
 # b3lyp/6-31+G(d,p) int=ultrafine pop=(ReadRadii,MK)
 ----------------------------------------------------

 -----------------------------------------
 mol_17.23.22.pdbcccc_plusQ.z58223.zip.xyz
 -----------------------------------------
 Symbolic Z-matrix:
 Charge =  1 Multiplicity = 1

                         Standard orientation:
 ---------------------------------------------------------------------
 Center     Atomic     Atomic              Coordinates (Angstroms)
 Number     Number      Type              X           Y           Z
 ---------------------------------------------------------------------
    1          8             0       -1.308644   -2.498380    0.000000
    2         15             0       -1.305472   -0.959230    0.000000
    3         20             0        1.147896   -2.646273    0.000000
    4          8             0        2.515628   -1.023564    0.000000
    5         20             0        2.201090    1.119646    0.000000
    6          8             0        0.309982    2.719318    0.000000
    7          8             0        0.000000    1.195618    0.000000
    8         20             0       -1.930799    2.144800    0.000000
    9          8             0       -2.614671   -0.139869    0.000000
 ---------------------------------------------------------------------

 SCF Done:  E(RB+HF-LYP) =  -2750.13371211     A.U. after   10 cycles

 The electronic state is 1-A'.
 Alpha  occ. eigenvalues -- -145.53140-145.49903-145.45558 -77.27331 -19.26336
 Alpha  occ. eigenvalues --  -19.25867 -19.23452 -19.23145 -19.11872 -15.59925
 Alpha  occ. eigenvalues --  -15.56787 -15.52450 -12.73197 -12.73087 -12.73032
 Alpha  occ. eigenvalues --  -12.70037 -12.70005 -12.69828 -12.65722 -12.65629
 Alpha  occ. eigenvalues --  -12.65500  -6.72927  -4.89319  -4.89141  -4.88773
 Alpha  occ. eigenvalues --   -1.96952  -1.93913  -1.89753  -1.24794  -1.24753
 Alpha  occ. eigenvalues --   -1.24043  -1.21735  -1.21666  -1.20589  -1.17778
 Alpha  occ. eigenvalues --   -1.17742  -1.16675  -1.11521  -1.07193  -1.06459
 Alpha  occ. eigenvalues --   -0.87062  -0.85907  -0.64320  -0.53094  -0.52567
 Alpha  occ. eigenvalues --   -0.50259  -0.46732  -0.46482  -0.44268  -0.43758
 Alpha  occ. eigenvalues --   -0.43561  -0.35512  -0.34809  -0.32112  -0.31278
 Alpha  occ. eigenvalues --   -0.29998  -0.29715
 Alpha virt. eigenvalues --   -0.20005  -0.17720  -0.17304  -0.15101  -0.11899
 Alpha virt. eigenvalues --   -0.10330  -0.10289  -0.10013  -0.09134  -0.08575
 Alpha virt. eigenvalues --   -0.08217  -0.06914  -0.06469  -0.05870  -0.05354

 Mulliken atomic charges:
              1
     1  O   -0.579420
     2  P    0.576725
     3  Ca   1.417381
     4  O   -1.230488
     5  Ca   1.425264
     6  O   -0.752390
     7  O   -0.639612
     8  Ca   1.534618
     9  O   -0.752078
 Sum of Mulliken charges=   1.00000

 Dipole moment (field-independent basis, Debye):
    X=    -0.8039    Y=     3.5348    Z=     0.0000  Tot=     3.6251
 Quadrupole moment (field-independent basis, Debye-Ang):
   XX=   -60.1986   YY=   -29.1905   ZZ=   -73.8043
   XY=   -27.7336   XZ=     0.0000   YZ=     0.0000

 Normal termination of Gaussian 03 at Fri Jun 12 17:52:28 2015.
