 Gaussian 03, Revision E.01,
 Gaussian 03:  EM64T-G03RevE.01 11-Sep-2007

 ----------------------------------------------------
 # b3lyp/6-31+G(d,p) int=ultrafine pop=(ReadRadii,MK)
 ----------------------------------------------------

 -------------------------------------
 mol_17.29.51.pdb_plusQ.z58634.zip.xyz
 -------------------------------------
 Symbolic Z-matrix:
 Charge =  1 Multiplicity = 1

                         Standard orientation:
 ---------------------------------------------------------------------
 Center     Atomic     Atomic              Coordinates (Angstroms)
 Number     Number      Type              X           Y           Z
 ---------------------------------------------------------------------
    1          8             0        4.308761    1.244551   -0.000709
    2         15             0        5.237091    0.004601   -0.000089
    3          8             0        4.316331   -1.241099    0.000221
    4         20             0        2.285471   -0.004599   -0.000009
    5          8             0        0.160241   -0.003130    0.786061
    6          8             0        0.160081   -0.004610   -0.785669
    7         20             0       -1.936409    0.001680    0.000421
    8          8             0       -4.135389    0.001610    0.000061
    9         20             0       -6.200889    0.000539   -0.000329
 ---------------------------------------------------------------------

 SCF Done:  E(RB+HF-LYP) =  -2750.15714437     A.U. after    9 cycles

 The electronic state is 1-A.
 Alpha  occ. eigenvalues -- -145.59175-145.44308-145.42786 -77.22103 -19.20697
 Alpha  occ. eigenvalues --  -19.20692 -19.20151 -19.20136 -19.17587 -15.65933
 Alpha  occ. eigenvalues --  -15.51286 -15.49706 -12.79153 -12.79153 -12.79017
 Alpha  occ. eigenvalues --  -12.64570 -12.64513 -12.64273 -12.62949 -12.62934
 Alpha  occ. eigenvalues --  -12.62749  -6.67867  -4.84300  -4.84049  -4.83668
 Alpha  occ. eigenvalues --   -2.02794  -1.88759  -1.87098  -1.30306  -1.30305
 Alpha  occ. eigenvalues --   -1.29393  -1.16874  -1.16860  -1.16597  -1.15115
 Alpha  occ. eigenvalues --   -1.14975  -1.14841  -1.06550  -1.02712  -1.00513
 Alpha  occ. eigenvalues --   -0.91599  -0.84462  -0.58775  -0.47525  -0.45970
 Alpha  occ. eigenvalues --   -0.45245  -0.44120  -0.43144  -0.41215  -0.37994
 Alpha  occ. eigenvalues --   -0.37251  -0.35812  -0.35753  -0.35744  -0.33528
 Alpha  occ. eigenvalues --   -0.32649  -0.28752
 Alpha virt. eigenvalues --   -0.26234  -0.16223  -0.16211  -0.15372  -0.12730
 Alpha virt. eigenvalues --   -0.12426  -0.09771  -0.09265  -0.08478  -0.08345
 Alpha virt. eigenvalues --   -0.06346  -0.06004  -0.05584  -0.05568  -0.04794

 Mulliken atomic charges:
              1
     1  O   -0.633657
     2  P    0.415510
     3  O   -0.633365
     4  Ca   1.486109
     5  O   -0.674936
     6  O   -0.674969
     7  Ca   1.388101
     8  O   -1.172390
     9  Ca   1.499597
 Sum of Mulliken charges=   1.00000

 Dipole moment (field-independent basis, Debye):
    X=   -31.9307    Y=    -0.0020    Z=    -0.0002  Tot=    31.9307
 Quadrupole moment (field-independent basis, Debye-Ang):
   XX=   121.2169   YY=   -84.6761   ZZ=   -77.6104
   XY=    -0.0493   XZ=     0.0140   YZ=     0.0002

 Normal termination of Gaussian 03 at Fri Jun 12 18:12:57 2015.
