 Gaussian 03, Revision E.01,
 Gaussian 03:  EM64T-G03RevE.01 11-Sep-2007

 ----------------------------------------------------
 # b3lyp/6-31+G(d,p) int=ultrafine pop=(ReadRadii,MK)
 ----------------------------------------------------

 ---------------------------------------
 mol_17.23.39.pdbcc_plusQ.z58240.zip.xyz
 ---------------------------------------
 Symbolic Z-matrix:
 Charge =  1 Multiplicity = 1

                         Standard orientation:
 ---------------------------------------------------------------------
 Center     Atomic     Atomic              Coordinates (Angstroms)
 Number     Number      Type              X           Y           Z
 ---------------------------------------------------------------------
    1          8             0       -0.834745   -1.604881   -0.011940
    2         15             0       -0.118141   -1.140689   -1.426830
    3          8             0        1.552301   -1.013116   -0.881840
    4          8             0        2.114073    0.144268   -0.063420
    5         20             0        0.724781    1.915633   -0.336400
    6          8             0       -0.422388    1.044775    1.404240
    7         20             0        0.819592   -0.889108    1.515790
    8         20             0       -2.163046    0.234083    0.312190
    9          8             0       -0.641044    0.416227   -1.500690
 ---------------------------------------------------------------------

 SCF Done:  E(RB+HF-LYP) =  -2750.21036090     A.U. after    8 cycles

 The electronic state is 1-A.
 Alpha  occ. eigenvalues -- -145.50965-145.50026-145.49678 -77.27035 -19.28845
 Alpha  occ. eigenvalues --  -19.25347 -19.23423 -19.23035 -19.16660 -15.57801
 Alpha  occ. eigenvalues --  -15.56851 -15.56470 -12.71011 -12.70973 -12.70924
 Alpha  occ. eigenvalues --  -12.70044 -12.70034 -12.69989 -12.69690 -12.69633
 Alpha  occ. eigenvalues --  -12.69619  -6.72130  -4.88557  -4.88418  -4.87895
 Alpha  occ. eigenvalues --   -1.95103  -1.94136  -1.93682  -1.23170  -1.22840
 Alpha  occ. eigenvalues --   -1.22454  -1.22335  -1.21692  -1.21429  -1.21269
 Alpha  occ. eigenvalues --   -1.21090  -1.20721  -1.13182  -1.07395  -1.02697
 Alpha  occ. eigenvalues --   -0.93105  -0.91571  -0.65293  -0.55839  -0.52714
 Alpha  occ. eigenvalues --   -0.51420  -0.48520  -0.47289  -0.44383  -0.42317
 Alpha  occ. eigenvalues --   -0.39783  -0.38423  -0.37053  -0.36739  -0.35862
 Alpha  occ. eigenvalues --   -0.34630  -0.32789
 Alpha virt. eigenvalues --   -0.20650  -0.18456  -0.17452  -0.13978  -0.12919
 Alpha virt. eigenvalues --   -0.11312  -0.10747  -0.09641  -0.08864  -0.08057
 Alpha virt. eigenvalues --   -0.07440  -0.06425  -0.06169  -0.05807  -0.05303

 Mulliken atomic charges:
              1
     1  O   -1.033473
     2  P    1.074239
     3  O   -0.486762
     4  O   -0.621249
     5  Ca   1.494506
     6  O   -1.263881
     7  Ca   1.451940
     8  Ca   1.421789
     9  O   -1.037110
 Sum of Mulliken charges=   1.00000

 Dipole moment (field-independent basis, Debye):
    X=    -4.9157    Y=     5.7854    Z=     5.8678  Tot=     9.5951
 Quadrupole moment (field-independent basis, Debye-Ang):
   XX=   -52.0535   YY=   -58.0329   ZZ=   -75.4568
   XY=     2.2105   XZ=     6.0099   YZ=   -22.4430

 Normal termination of Gaussian 03 at Fri Jun 12 17:53:33 2015.
