 Gaussian 03, Revision E.01,
 Gaussian 03:  EM64T-G03RevE.01 11-Sep-2007

 ----------------------------------------------------
 # b3lyp/6-31+G(d,p) int=ultrafine pop=(ReadRadii,MK)
 ----------------------------------------------------

 ---------------------------------------
 mol_17.27.40.pdbcc_plusQ.z58507.zip.xyz
 ---------------------------------------
 Symbolic Z-matrix:
 Charge =  1 Multiplicity = 1

                         Standard orientation:
 ---------------------------------------------------------------------
 Center     Atomic     Atomic              Coordinates (Angstroms)
 Number     Number      Type              X           Y           Z
 ---------------------------------------------------------------------
    1          8             0       -0.755941   -1.249899   -0.034950
    2          8             0        2.632950    0.001189    0.531880
    3          8             0        2.379120    0.001089   -1.015340
    4         20             0        1.442389   -1.800261   -0.044090
    5         20             0        1.439441    1.800769   -0.043900
    6          8             0       -0.759209    1.250311   -0.034470
    7         15             0       -0.973110    0.000021    1.110880
    8         20             0       -2.533410   -0.000708   -1.021940
    9          8             0       -2.543390   -0.002228    1.244810
 ---------------------------------------------------------------------

 SCF Done:  E(RB+HF-LYP) =  -2750.19821054     A.U. after    7 cycles

 The electronic state is 1-A.
 Alpha  occ. eigenvalues -- -145.52884-145.49502-145.49499 -77.24306 -19.22797
 Alpha  occ. eigenvalues --  -19.22510 -19.21328 -19.21324 -19.19026 -15.59677
 Alpha  occ. eigenvalues --  -15.56363 -15.56362 -12.72860 -12.72855 -12.72843
 Alpha  occ. eigenvalues --  -12.69590 -12.69588 -12.69564 -12.69563 -12.69453
 Alpha  occ. eigenvalues --  -12.69451  -6.69594  -4.85975  -4.85899  -4.85458
 Alpha  occ. eigenvalues --   -1.96712  -1.93610  -1.93575  -1.24675  -1.23978
 Alpha  occ. eigenvalues --   -1.23938  -1.22276  -1.21280  -1.21229  -1.21053
 Alpha  occ. eigenvalues --   -1.21027  -1.20594  -1.06710  -1.05363  -0.99870
 Alpha  occ. eigenvalues --   -0.99591  -0.86451  -0.61786  -0.49594  -0.49233
 Alpha  occ. eigenvalues --   -0.48395  -0.46093  -0.44985  -0.43565  -0.42566
 Alpha  occ. eigenvalues --   -0.41980  -0.37839  -0.37837  -0.34591  -0.33873
 Alpha  occ. eigenvalues --   -0.32219  -0.31074
 Alpha virt. eigenvalues --   -0.20490  -0.17974  -0.17402  -0.13050  -0.12114
 Alpha virt. eigenvalues --   -0.11133  -0.09670  -0.08664  -0.08336  -0.07573
 Alpha virt. eigenvalues --   -0.06946  -0.06822  -0.06583  -0.06265  -0.05325

 Mulliken atomic charges:
              1
     1  O   -0.972220
     2  O   -0.658046
     3  O   -0.659824
     4  Ca   1.485257
     5  Ca   1.485064
     6  O   -0.971918
     7  P    0.803909
     8  Ca   1.357472
     9  O   -0.869693
 Sum of Mulliken charges=   1.00000

 Dipole moment (field-independent basis, Debye):
    X=    -1.3281    Y=    -0.0030    Z=    -8.1518  Tot=     8.2593
 Quadrupole moment (field-independent basis, Debye-Ang):
   XX=   -62.1511   YY=   -36.3411   ZZ=   -75.9135
   XY=    -0.0451   XZ=    28.8022   YZ=     0.0137

 Normal termination of Gaussian 03 at Fri Jun 12 18:06:31 2015.
