 Gaussian 03, Revision E.01,
 Gaussian 03:  EM64T-G03RevE.01 11-Sep-2007

 ----------------------------------------------------
 # b3lyp/6-31+G(d,p) int=ultrafine pop=(ReadRadii,MK)
 ----------------------------------------------------

 -----------------------------------------
 mol_17.29.16.pdbcccc_plusQ.z58596.zip.xyz
 -----------------------------------------
 Symbolic Z-matrix:
 Charge =  1 Multiplicity = 1

                         Standard orientation:
 ---------------------------------------------------------------------
 Center     Atomic     Atomic              Coordinates (Angstroms)
 Number     Number      Type              X           Y           Z
 ---------------------------------------------------------------------
    1          8             0        3.410790   -0.653218   -0.002420
    2          8             0       -0.822090   -0.879870    0.778000
    3         20             0        1.221798   -1.492524    0.001390
    4         15             0        3.170513    0.867032   -0.001270
    5          8             0        1.613133    1.040325    0.002480
    6          8             0       -0.821210   -0.879770   -0.777540
    7         20             0       -0.726146    1.518910    0.000640
    8          8             0       -2.874916    1.415944   -0.000520
    9         20             0       -3.075820   -0.694025   -0.001080
 ---------------------------------------------------------------------

 SCF Done:  E(RB+HF-LYP) =  -2750.19922760     A.U. after    8 cycles

 The electronic state is 1-A.
 Alpha  occ. eigenvalues -- -145.53299-145.48101-145.46500 -77.31646 -19.29957
 Alpha  occ. eigenvalues --  -19.29135 -19.27656 -19.27651 -19.10311 -15.60145
 Alpha  occ. eigenvalues --  -15.54938 -15.53359 -12.73381 -12.73376 -12.73211
 Alpha  occ. eigenvalues --  -12.68157 -12.68121 -12.68041 -12.66613 -12.66577
 Alpha  occ. eigenvalues --  -12.66408  -6.77271  -4.93703  -4.93471  -4.93053
 Alpha  occ. eigenvalues --   -1.97330  -1.92136  -1.90669  -1.25313  -1.25143
 Alpha  occ. eigenvalues --   -1.25003  -1.20357  -1.19790  -1.19239  -1.18530
 Alpha  occ. eigenvalues --   -1.18452  -1.17870  -1.15551  -1.10914  -1.09762
 Alpha  occ. eigenvalues --   -0.91289  -0.84520  -0.68929  -0.57896  -0.55271
 Alpha  occ. eigenvalues --   -0.54482  -0.51224  -0.50448  -0.49465  -0.46900
 Alpha  occ. eigenvalues --   -0.45452  -0.42700  -0.38846  -0.36715  -0.30147
 Alpha  occ. eigenvalues --   -0.28563  -0.28510
 Alpha virt. eigenvalues --   -0.21597  -0.19565  -0.17911  -0.15028  -0.15009
 Alpha virt. eigenvalues --   -0.11255  -0.10531  -0.09853  -0.09287  -0.08793
 Alpha virt. eigenvalues --   -0.08674  -0.08136  -0.07317  -0.06844  -0.06403

 Mulliken atomic charges:
              1
     1  O   -0.647438
     2  O   -0.694234
     3  Ca   1.503226
     4  P    0.680204
     5  O   -0.742682
     6  O   -0.694425
     7  Ca   1.356228
     8  O   -1.123834
     9  Ca   1.362955
 Sum of Mulliken charges=   1.00000

 Dipole moment (field-independent basis, Debye):
    X=     0.3535    Y=    -7.6408    Z=     0.0062  Tot=     7.6490
 Quadrupole moment (field-independent basis, Debye-Ang):
   XX=   -63.4215   YY=   -57.0546   ZZ=   -77.2559
   XY=    23.1645   XZ=     0.0352   YZ=    -0.0124

 Normal termination of Gaussian 03 at Fri Jun 12 18:11:40 2015.
