 Gaussian 03, Revision E.01,
 Gaussian 03:  EM64T-G03RevE.01 11-Sep-2007

 ----------------------------------------------------
 # b3lyp/6-31+G(d,p) int=ultrafine pop=(ReadRadii,MK)
 ----------------------------------------------------

 --------------------------------------
 mol_17.26.49.pdbc_plusQ.z58460.zip.xyz
 --------------------------------------
 Symbolic Z-matrix:
 Charge =  1 Multiplicity = 1

                         Standard orientation:
 ---------------------------------------------------------------------
 Center     Atomic     Atomic              Coordinates (Angstroms)
 Number     Number      Type              X           Y           Z
 ---------------------------------------------------------------------
    1          8             0       -0.897055   -1.719122   -0.678428
    2          8             0        0.728319    0.258773   -0.940568
    3          8             0        1.477366    1.351985   -0.179918
    4         20             0        2.971011   -0.372361   -0.110388
    5          8             0        1.241614   -1.457236    0.866902
    6         15             0        0.003302   -0.855319    0.199162
    7          8             0       -0.917450    0.096248    1.034942
    8         20             0       -2.943578   -0.650368   -0.158758
    9         20             0       -0.683027    2.251959    0.078602
 ---------------------------------------------------------------------

 SCF Done:  E(RB+HF-LYP) =  -2750.16900932     A.U. after   14 cycles

 The electronic state is 1-A.
 Alpha  occ. eigenvalues -- -145.55395-145.51930-145.51331 -77.34442 -19.34006
 Alpha  occ. eigenvalues --  -19.30108 -19.25590 -19.24949 -19.24257 -15.62210
 Alpha  occ. eigenvalues --  -15.58840 -15.58227 -12.75444 -12.75361 -12.75355
 Alpha  occ. eigenvalues --  -12.72050 -12.72012 -12.71947 -12.71448 -12.71387
 Alpha  occ. eigenvalues --  -12.71340  -6.78927  -4.95452  -4.95193  -4.95136
 Alpha  occ. eigenvalues --   -1.99192  -1.95854  -1.95312  -1.27398  -1.26738
 Alpha  occ. eigenvalues --   -1.26491  -1.23753  -1.23317  -1.23162  -1.23100
 Alpha  occ. eigenvalues --   -1.22756  -1.22657  -1.18926  -1.13389  -1.07790
 Alpha  occ. eigenvalues --   -1.06518  -0.97049  -0.66831  -0.59798  -0.57396
 Alpha  occ. eigenvalues --   -0.56799  -0.53844  -0.52815  -0.47738  -0.46981
 Alpha  occ. eigenvalues --   -0.45288  -0.45024  -0.42673  -0.40941  -0.40356
 Alpha  occ. eigenvalues --   -0.40270  -0.25220
 Alpha virt. eigenvalues --   -0.22439  -0.19374  -0.16276  -0.13617  -0.13169
 Alpha virt. eigenvalues --   -0.12652  -0.12037  -0.10985  -0.10549  -0.09319
 Alpha virt. eigenvalues --   -0.08508  -0.07235  -0.06721  -0.06238  -0.05338

 Mulliken atomic charges:
              1
     1  O   -0.794901
     2  O   -0.541180
     3  O   -0.637939
     4  Ca   1.262283
     5  O   -0.835337
     6  P    1.782396
     7  O   -0.916391
     8  Ca   0.743199
     9  Ca   0.937869
 Sum of Mulliken charges=   1.00000

 Dipole moment (field-independent basis, Debye):
    X=     4.7439    Y=     2.5768    Z=    -0.4827  Tot=     5.4201
 Quadrupole moment (field-independent basis, Debye-Ang):
   XX=   -17.6549   YY=   -75.5676   ZZ=   -91.6472
   XY=     3.1366   XZ=    -3.1427   YZ=     3.9680

 Normal termination of Gaussian 03 at Fri Jun 12 18:02:38 2015.
