 Gaussian 03, Revision E.01,
 Gaussian 03:  EM64T-G03RevE.01 11-Sep-2007

 ----------------------------------------------------
 # b3lyp/6-31+G(d,p) int=ultrafine pop=(ReadRadii,MK)
 ----------------------------------------------------

 ---------------------------------------
 mol_17.24.40.pdbcc_plusQ.z58293.zip.xyz
 ---------------------------------------
 Symbolic Z-matrix:
 Charge =  1 Multiplicity = 1

                         Standard orientation:
 ---------------------------------------------------------------------
 Center     Atomic     Atomic              Coordinates (Angstroms)
 Number     Number      Type              X           Y           Z
 ---------------------------------------------------------------------
    1          8             0        1.916920    0.000273   -0.000948
    2          8             0       -0.705089    0.198293   -1.444210
    3         15             0       -1.446390   -0.000103    0.000278
    4          8             0       -2.926360   -0.000206    0.000808
    5          8             0       -0.704758    1.151464    0.894264
    6         20             0        0.777637    1.814907   -0.739964
    7         20             0        0.777767   -1.548233   -1.201696
    8         20             0        0.778936   -0.266578    1.941169
    9          8             0       -0.704582   -1.349870    0.550794
 ---------------------------------------------------------------------

 SCF Done:  E(RB+HF-LYP) =  -2750.33238949     A.U. after    8 cycles

 The electronic state is 1-A.
 Alpha  occ. eigenvalues -- -145.51539-145.51532-145.51531 -77.29640 -19.22139
 Alpha  occ. eigenvalues --  -19.22137 -19.22135 -19.17335 -19.16957 -15.58327
 Alpha  occ. eigenvalues --  -15.58322 -15.58321 -12.71533 -12.71531 -12.71530
 Alpha  occ. eigenvalues --  -12.71502 -12.71500 -12.71498 -12.71462 -12.71460
 Alpha  occ. eigenvalues --  -12.71459  -6.73986  -4.90398  -4.90398  -4.90175
 Alpha  occ. eigenvalues --   -1.95606  -1.95528  -1.95527  -1.24174  -1.23495
 Alpha  occ. eigenvalues --   -1.23494  -1.23031  -1.22981  -1.22847  -1.22846
 Alpha  occ. eigenvalues --   -1.22398  -1.22396  -1.10628  -1.02386  -1.02383
 Alpha  occ. eigenvalues --   -1.00885  -0.92244  -0.61914  -0.53113  -0.53113
 Alpha  occ. eigenvalues --   -0.49404  -0.45143  -0.45142  -0.42198  -0.40248
 Alpha  occ. eigenvalues --   -0.40245  -0.39408  -0.37693  -0.37692  -0.34989
 Alpha  occ. eigenvalues --   -0.34623  -0.34623
 Alpha virt. eigenvalues --   -0.21579  -0.19008  -0.19007  -0.13408  -0.13404
 Alpha virt. eigenvalues --   -0.11686  -0.09946  -0.09945  -0.09243  -0.09105
 Alpha virt. eigenvalues --   -0.07005  -0.06504  -0.06502  -0.04959  -0.04853

 Mulliken atomic charges:
              1
     1  O   -1.279331
     2  O   -1.127978
     3  P    1.864632
     4  O   -0.646515
     5  O   -1.128196
     6  Ca   1.481887
     7  Ca   1.481878
     8  Ca   1.481831
     9  O   -1.128209
 Sum of Mulliken charges=   1.00000

 Dipole moment (field-independent basis, Debye):
    X=    13.7197    Y=    -0.0004    Z=    -0.0022  Tot=    13.7197
 Quadrupole moment (field-independent basis, Debye-Ang):
   XX=  -104.6939   YY=   -40.4137   ZZ=   -40.4344
   XY=    -0.0071   XZ=     0.0312   YZ=     0.0006

 Normal termination of Gaussian 03 at Fri Jun 12 17:56:11 2015.
