 Gaussian 03, Revision E.01,
 Gaussian 03:  EM64T-G03RevE.01 11-Sep-2007

 ----------------------------------------------------
 # b3lyp/6-31+G(d,p) int=ultrafine pop=(ReadRadii,MK)
 ----------------------------------------------------

 ----------------------------------------
 mol_17.26.24.pdbccc_plusQ.z58383.zip.xyz
 ----------------------------------------
 Symbolic Z-matrix:
 Charge =  1 Multiplicity = 1

                         Standard orientation:
 ---------------------------------------------------------------------
 Center     Atomic     Atomic              Coordinates (Angstroms)
 Number     Number      Type              X           Y           Z
 ---------------------------------------------------------------------
    1          8             0       -0.668170   -1.258844    0.976050
    2          8             0        2.060559    0.000329   -0.101310
    3          8             0        1.628239   -0.003215    1.364830
    4         20             0        0.721343   -1.683022   -0.848450
    5          8             0       -0.511281    0.003997   -1.754510
    6         20             0       -2.164721    0.000603   -0.278990
    7          8             0       -0.668121    1.254336    0.981790
    8         15             0       -0.019131   -0.004239    1.842080
    9         20             0        0.721235    1.686958   -0.840860
 ---------------------------------------------------------------------

 SCF Done:  E(RB+HF-LYP) =  -2750.21013002     A.U. after    8 cycles

 The electronic state is 1-A.
 Alpha  occ. eigenvalues -- -145.50884-145.49976-145.49972 -77.26615 -19.28663
 Alpha  occ. eigenvalues --  -19.25250 -19.22900 -19.22900 -19.16862 -15.57721
 Alpha  occ. eigenvalues --  -15.56794 -15.56791 -12.70927 -12.70892 -12.70847
 Alpha  occ. eigenvalues --  -12.69992 -12.69992 -12.69964 -12.69964 -12.69939
 Alpha  occ. eigenvalues --  -12.69938  -6.71713  -4.88132  -4.88009  -4.87486
 Alpha  occ. eigenvalues --   -1.95029  -1.94084  -1.94029  -1.23114  -1.22779
 Alpha  occ. eigenvalues --   -1.22390  -1.22275  -1.21604  -1.21582  -1.21354
 Alpha  occ. eigenvalues --   -1.21290  -1.20980  -1.13416  -1.06849  -1.02233
 Alpha  occ. eigenvalues --   -0.93401  -0.91718  -0.65001  -0.55628  -0.52565
 Alpha  occ. eigenvalues --   -0.51437  -0.48107  -0.46970  -0.44014  -0.42107
 Alpha  occ. eigenvalues --   -0.39435  -0.38483  -0.37012  -0.36055  -0.35625
 Alpha  occ. eigenvalues --   -0.35475  -0.32663
 Alpha virt. eigenvalues --   -0.20696  -0.18356  -0.17805  -0.13794  -0.12910
 Alpha virt. eigenvalues --   -0.11311  -0.10839  -0.09447  -0.09264  -0.08194
 Alpha virt. eigenvalues --   -0.07390  -0.06436  -0.06182  -0.05880  -0.04928

 Mulliken atomic charges:
              1
     1  O   -1.048719
     2  O   -0.650398
     3  O   -0.444307
     4  Ca   1.489843
     5  O   -1.258597
     6  Ca   1.420671
     7  O   -1.048720
     8  P    1.050359
     9  Ca   1.489867
 Sum of Mulliken charges=   1.00000

 Dipole moment (field-independent basis, Debye):
    X=    -5.1175    Y=     0.0193    Z=    -8.2826  Tot=     9.7360
 Quadrupole moment (field-independent basis, Debye-Ang):
   XX=   -52.5681   YY=   -42.2637   ZZ=   -90.5997
   XY=     0.0190   XZ=    -8.8415   YZ=     0.1090

 Normal termination of Gaussian 03 at Fri Jun 12 18:00:37 2015.
