 Gaussian 03, Revision E.01,
 Gaussian 03:  EM64T-G03RevE.01 11-Sep-2007

 ----------------------------------------------------
 # b3lyp/6-31+G(d,p) int=ultrafine pop=(ReadRadii,MK)
 ----------------------------------------------------

 -------------------------------------
 mol_17.23.38.pdb_plusQ.z58239.zip.xyz
 -------------------------------------
 Symbolic Z-matrix:
 Charge =  1 Multiplicity = 1

                         Standard orientation:
 ---------------------------------------------------------------------
 Center     Atomic     Atomic              Coordinates (Angstroms)
 Number     Number      Type              X           Y           Z
 ---------------------------------------------------------------------
    1          8             0       -1.597000   -2.695410    0.000000
    2         15             0       -0.382490   -3.612220    0.000000
    3          8             0        0.945620   -2.683880    0.000000
    4          8             0        0.736990   -1.239500    0.000000
    5         20             0        2.162200    0.674130    0.000000
    6         20             0        0.129730    3.685300    0.000000
    7          8             0        0.000000    1.403260    0.000000
    8          8             0       -1.444440    1.944670    0.000000
    9         20             0       -1.461530   -0.341920    0.000000
 ---------------------------------------------------------------------

 SCF Done:  E(RB+HF-LYP) =  -2750.02741739     A.U. after   10 cycles

 The electronic state is 1-A'.
 Alpha  occ. eigenvalues -- -145.51099-145.50828-145.50529 -77.32885 -19.37662
 Alpha  occ. eigenvalues --  -19.31007 -19.30984 -19.26975 -19.26803 -15.57972
 Alpha  occ. eigenvalues --  -15.57686 -15.57473 -12.71181 -12.71137 -12.71088
 Alpha  occ. eigenvalues --  -12.70970 -12.70868 -12.70753 -12.70688 -12.70642
 Alpha  occ. eigenvalues --  -12.70561  -6.78641  -4.94966  -4.94924  -4.94404
 Alpha  occ. eigenvalues --   -1.95025  -1.94930  -1.94578  -1.24706  -1.23612
 Alpha  occ. eigenvalues --   -1.22898  -1.22519  -1.22459  -1.22127  -1.22122
 Alpha  occ. eigenvalues --   -1.22086  -1.21816  -1.21662  -1.14473  -1.10316
 Alpha  occ. eigenvalues --   -0.99880  -0.90798  -0.71556  -0.62484  -0.59383
 Alpha  occ. eigenvalues --   -0.57737  -0.52145  -0.50872  -0.50467  -0.49792
 Alpha  occ. eigenvalues --   -0.47889  -0.46061  -0.42671  -0.40696  -0.38477
 Alpha  occ. eigenvalues --   -0.34822  -0.25211
 Alpha virt. eigenvalues --   -0.22634  -0.19572  -0.18113  -0.15487  -0.14075
 Alpha virt. eigenvalues --   -0.13070  -0.12023  -0.11252  -0.10755  -0.10673
 Alpha virt. eigenvalues --   -0.09793  -0.08122  -0.07605  -0.07449  -0.06745

 Mulliken atomic charges:
              1
     1  O   -0.671032
     2  P    0.798629
     3  O   -0.336221
     4  O   -0.485538
     5  Ca   0.701577
     6  Ca   0.775956
     7  O   -0.530295
     8  O   -0.676781
     9  Ca   1.423705
 Sum of Mulliken charges=   1.00000

 Dipole moment (field-independent basis, Debye):
    X=    -1.8667    Y=     2.3281    Z=     0.0000  Tot=     2.9841
 Quadrupole moment (field-independent basis, Debye-Ang):
   XX=   -71.2631   YY=   -47.6034   ZZ=   -84.2421
   XY=    -1.0583   XZ=     0.0000   YZ=     0.0000

 Normal termination of Gaussian 03 at Fri Jun 12 17:53:14 2015.
