 Gaussian 03, Revision E.01,
 Gaussian 03:  EM64T-G03RevE.01 11-Sep-2007

 ----------------------------------------------------
 # b3lyp/6-31+G(d,p) int=ultrafine pop=(ReadRadii,MK)
 ----------------------------------------------------

 ---------------------------------------
 mol_17.28.47.pdbcc_plusQ.z58571.zip.xyz
 ---------------------------------------
 Symbolic Z-matrix:
 Charge =  1 Multiplicity = 1

                         Standard orientation:
 ---------------------------------------------------------------------
 Center     Atomic     Atomic              Coordinates (Angstroms)
 Number     Number      Type              X           Y           Z
 ---------------------------------------------------------------------
    1          8             0       -3.411040   -0.653411   -0.000250
    2          8             0       -1.613120    1.040709    0.000450
    3         15             0       -3.170610    0.866849   -0.000330
    4         20             0        3.075860   -0.694130   -0.000190
    5          8             0        2.875000    1.415870   -0.000300
    6         20             0        0.726260    1.518979    0.000230
    7          8             0        0.821770   -0.880000    0.777910
    8          8             0        0.821630   -0.879880   -0.777660
    9         20             0       -1.221860   -1.492301    0.000150
 ---------------------------------------------------------------------

 SCF Done:  E(RB+HF-LYP) =  -2750.19922743     A.U. after    8 cycles

 The electronic state is 1-A.
 Alpha  occ. eigenvalues -- -145.53300-145.48101-145.46502 -77.31650 -19.29960
 Alpha  occ. eigenvalues --  -19.29141 -19.27656 -19.27651 -19.10312 -15.60146
 Alpha  occ. eigenvalues --  -15.54938 -15.53361 -12.73382 -12.73377 -12.73212
 Alpha  occ. eigenvalues --  -12.68157 -12.68121 -12.68042 -12.66615 -12.66579
 Alpha  occ. eigenvalues --  -12.66410  -6.77273  -4.93706  -4.93473  -4.93056
 Alpha  occ. eigenvalues --   -1.97331  -1.92136  -1.90670  -1.25314  -1.25144
 Alpha  occ. eigenvalues --   -1.25004  -1.20357  -1.19791  -1.19240  -1.18531
 Alpha  occ. eigenvalues --   -1.18453  -1.17871  -1.15550  -1.10913  -1.09765
 Alpha  occ. eigenvalues --   -0.91290  -0.84521  -0.68932  -0.57898  -0.55270
 Alpha  occ. eigenvalues --   -0.54481  -0.51223  -0.50448  -0.49464  -0.46903
 Alpha  occ. eigenvalues --   -0.45458  -0.42699  -0.38847  -0.36715  -0.30148
 Alpha  occ. eigenvalues --   -0.28564  -0.28510
 Alpha virt. eigenvalues --   -0.21599  -0.19564  -0.17911  -0.15029  -0.15010
 Alpha virt. eigenvalues --   -0.11255  -0.10531  -0.09853  -0.09287  -0.08793
 Alpha virt. eigenvalues --   -0.08673  -0.08136  -0.07318  -0.06844  -0.06403

 Mulliken atomic charges:
              1
     1  O   -0.647292
     2  O   -0.742635
     3  P    0.680113
     4  Ca   1.362977
     5  O   -1.123841
     6  Ca   1.356228
     7  O   -0.694322
     8  O   -0.694329
     9  Ca   1.503101
 Sum of Mulliken charges=   1.00000

 Dipole moment (field-independent basis, Debye):
    X=    -0.3534    Y=    -7.6397    Z=     0.0012  Tot=     7.6479
 Quadrupole moment (field-independent basis, Debye-Ang):
   XX=   -63.4204   YY=   -57.0610   ZZ=   -77.2566
   XY=   -23.1631   XZ=    -0.0003   YZ=     0.0034

 Normal termination of Gaussian 03 at Fri Jun 12 18:10:09 2015.
