 Gaussian 03, Revision E.01,
 Gaussian 03:  EM64T-G03RevE.01 11-Sep-2007

 ----------------------------------------------------
 # b3lyp/6-31+G(d,p) int=ultrafine pop=(ReadRadii,MK)
 ----------------------------------------------------

 -----------------------------------------
 mol_16.4.48.pdbc_plusQ.out.z51598.zip.xyz
 -----------------------------------------
 Symbolic Z-matrix:
 Charge =  1 Multiplicity = 1

                         Standard orientation:
 ---------------------------------------------------------------------
 Center     Atomic     Atomic              Coordinates (Angstroms)
 Number     Number      Type              X           Y           Z
 ---------------------------------------------------------------------
    1         20             0        2.069190   -0.753468    0.000183
    2          8             0        1.381799    1.464132   -0.002517
    3          8             0        0.001430   -0.329649    1.197573
    4         15             0        0.000050    0.799781    0.000403
    5          8             0       -1.381661    1.464151    0.001123
    6         20             0       -2.069260   -0.753390   -0.000117
    7          8             0       -0.001490   -0.331079   -1.197097
 ---------------------------------------------------------------------

 SCF Done:  E(RB+HF-LYP) =  -1997.39007421     A.U. after    8 cycles

 The electronic state is 1-A.
 Alpha  occ. eigenvalues -- -145.57685-145.57684 -77.31325 -19.22605 -19.22602
 Alpha  occ. eigenvalues --  -19.22340 -19.22219 -15.64388 -15.64387 -12.77587
 Alpha  occ. eigenvalues --  -12.77586 -12.77574 -12.77574 -12.77573 -12.77572
 Alpha  occ. eigenvalues --   -6.76046  -4.92394  -4.92387  -4.92310  -2.01220
 Alpha  occ. eigenvalues --   -2.01213  -1.29327  -1.28814  -1.28435  -1.28434
 Alpha  occ. eigenvalues --   -1.28379  -1.28331  -1.12979  -1.05498  -1.03649
 Alpha  occ. eigenvalues --   -1.01660  -0.62390  -0.53169  -0.53130  -0.52451
 Alpha  occ. eigenvalues --   -0.45687  -0.45576  -0.45171  -0.42420  -0.40450
 Alpha  occ. eigenvalues --   -0.39273  -0.37989  -0.35875
 Alpha virt. eigenvalues --   -0.23654  -0.22442  -0.14870  -0.13486  -0.12799
 Alpha virt. eigenvalues --   -0.12505  -0.10777  -0.08512  -0.07910  -0.06633
 Alpha virt. eigenvalues --   -0.05355  -0.05333  -0.04645  -0.04455  -0.04311

 Mulliken atomic charges:
              1
     1  Ca   1.482951
     2  O   -0.825936
     3  O   -1.017036
     4  P    1.722252
     5  O   -0.825999
     6  Ca   1.482973
     7  O   -1.019206
 Sum of Mulliken charges=   1.00000

 Dipole moment (field-independent basis, Debye):
    X=    -0.0007    Y=   -13.9775    Z=     0.0162  Tot=    13.9775
 Quadrupole moment (field-independent basis, Debye-Ang):
   XX=     3.5068   YY=   -55.5533   ZZ=   -66.8101
   XY=    -0.0012   XZ=     0.0065   YZ=    -0.0033

 Normal termination of Gaussian 03 at Fri Jun 12 17:48:58 2015.
