 Gaussian 03, Revision E.01,
 Gaussian 03:  EM64T-G03RevE.01 11-Sep-2007

 ----------------------------------------------------
 # b3lyp/6-31+G(d,p) int=ultrafine pop=(ReadRadii,MK)
 ----------------------------------------------------

 -----------------------------------------
 mol_17.26.14.pdbcccc_plusQ.z58373.zip.xyz
 -----------------------------------------
 Symbolic Z-matrix:
 Charge =  1 Multiplicity = 1

                         Standard orientation:
 ---------------------------------------------------------------------
 Center     Atomic     Atomic              Coordinates (Angstroms)
 Number     Number      Type              X           Y           Z
 ---------------------------------------------------------------------
    1          8             0       -0.758691    1.250309   -0.033939
    2          8             0       -0.756030   -1.249701   -0.034819
    3         15             0       -0.973050   -0.000421    1.110801
    4          8             0       -2.543440   -0.002192    1.244591
    5         20             0       -2.533450   -0.000252   -1.021949
    6         20             0        1.442160   -1.800551   -0.044189
    7          8             0        2.632890    0.000889    0.531501
    8          8             0        2.378370    0.000969   -1.015619
    9         20             0        1.439839    1.801009   -0.043649
 ---------------------------------------------------------------------

 SCF Done:  E(RB+HF-LYP) =  -2750.19821032     A.U. after    7 cycles

 The electronic state is 1-A.
 Alpha  occ. eigenvalues -- -145.52884-145.49502-145.49500 -77.24301 -19.22796
 Alpha  occ. eigenvalues --  -19.22508 -19.21325 -19.21324 -19.19020 -15.59676
 Alpha  occ. eigenvalues --  -15.56364 -15.56362 -12.72859 -12.72855 -12.72842
 Alpha  occ. eigenvalues --  -12.69590 -12.69589 -12.69565 -12.69563 -12.69454
 Alpha  occ. eigenvalues --  -12.69452  -6.69589  -4.85969  -4.85893  -4.85452
 Alpha  occ. eigenvalues --   -1.96712  -1.93610  -1.93576  -1.24674  -1.23977
 Alpha  occ. eigenvalues --   -1.23937  -1.22276  -1.21281  -1.21229  -1.21053
 Alpha  occ. eigenvalues --   -1.21028  -1.20595  -1.06712  -1.05362  -0.99866
 Alpha  occ. eigenvalues --   -0.99595  -0.86450  -0.61783  -0.49596  -0.49234
 Alpha  occ. eigenvalues --   -0.48394  -0.46091  -0.44984  -0.43563  -0.42566
 Alpha  occ. eigenvalues --   -0.41979  -0.37836  -0.37835  -0.34588  -0.33873
 Alpha  occ. eigenvalues --   -0.32213  -0.31071
 Alpha virt. eigenvalues --   -0.20489  -0.17975  -0.17403  -0.13049  -0.12114
 Alpha virt. eigenvalues --   -0.11133  -0.09670  -0.08664  -0.08335  -0.07573
 Alpha virt. eigenvalues --   -0.06946  -0.06821  -0.06582  -0.06264  -0.05324

 Mulliken atomic charges:
              1
     1  O   -0.972021
     2  O   -0.971983
     3  P    0.803947
     4  O   -0.869786
     5  Ca   1.357213
     6  Ca   1.485320
     7  O   -0.658117
     8  O   -0.659786
     9  Ca   1.485214
 Sum of Mulliken charges=   1.00000

 Dipole moment (field-independent basis, Debye):
    X=    -1.3228    Y=    -0.0024    Z=    -8.1513  Tot=     8.2580
 Quadrupole moment (field-independent basis, Debye-Ang):
   XX=   -62.1450   YY=   -36.3226   ZZ=   -75.9190
   XY=    -0.0408   XZ=    28.8075   YZ=     0.0137

 Normal termination of Gaussian 03 at Fri Jun 12 17:59:34 2015.
