 Gaussian 03, Revision E.01,
 Gaussian 03:  EM64T-G03RevE.01 11-Sep-2007

 ----------------------------------------------------
 # b3lyp/6-31+G(d,p) int=ultrafine pop=(ReadRadii,MK)
 ----------------------------------------------------

 -----------------------------------------
 mol_17.27.28.pdbcccc_plusQ.z58495.zip.xyz
 -----------------------------------------
 Symbolic Z-matrix:
 Charge =  1 Multiplicity = 1

                         Standard orientation:
 ---------------------------------------------------------------------
 Center     Atomic     Atomic              Coordinates (Angstroms)
 Number     Number      Type              X           Y           Z
 ---------------------------------------------------------------------
    1          8             0       -2.536432    1.262367    0.045860
    2          8             0       -1.142531    0.877478    0.159370
    3          8             0        1.462330   -0.425540    0.789650
    4          8             0        1.408930   -0.456950   -0.768410
    5         20             0        3.680010   -0.443888   -0.069580
    6         20             0        1.012888    1.803310   -0.004660
    7         15             0       -3.617081    0.060456   -0.114430
    8         20             0       -0.514910   -1.404832    0.102230
    9          8             0       -2.855240   -1.257184   -0.081890
 ---------------------------------------------------------------------

 SCF Done:  E(RB+HF-LYP) =  -2750.03894038     A.U. after   12 cycles

 The electronic state is 1-A.
 Alpha  occ. eigenvalues -- -145.51714-145.50989-145.50239 -77.32927 -19.37637
 Alpha  occ. eigenvalues --  -19.31024 -19.30918 -19.28532 -19.28476 -15.58566
 Alpha  occ. eigenvalues --  -15.57873 -15.57204 -12.71801 -12.71774 -12.71653
 Alpha  occ. eigenvalues --  -12.71075 -12.71034 -12.71010 -12.70399 -12.70370
 Alpha  occ. eigenvalues --  -12.70302  -6.78658  -4.94973  -4.94950  -4.94428
 Alpha  occ. eigenvalues --   -1.95777  -1.94978  -1.94299  -1.25146  -1.24310
 Alpha  occ. eigenvalues --   -1.23476  -1.22821  -1.22588  -1.22471  -1.22052
 Alpha  occ. eigenvalues --   -1.21691  -1.21662  -1.21634  -1.14539  -1.11696
 Alpha  occ. eigenvalues --   -0.99834  -0.92199  -0.71670  -0.62618  -0.59450
 Alpha  occ. eigenvalues --   -0.57789  -0.51884  -0.51316  -0.50925  -0.50709
 Alpha  occ. eigenvalues --   -0.50114  -0.46083  -0.42588  -0.41027  -0.39250
 Alpha  occ. eigenvalues --   -0.37775  -0.25006
 Alpha virt. eigenvalues --   -0.22682  -0.19169  -0.18867  -0.15890  -0.15548
 Alpha virt. eigenvalues --   -0.13410  -0.11766  -0.11508  -0.10597  -0.10284
 Alpha virt. eigenvalues --   -0.10047  -0.08235  -0.07643  -0.07308  -0.06958

 Mulliken atomic charges:
              1
     1  O   -0.310334
     2  O   -0.512800
     3  O   -0.552411
     4  O   -0.570052
     5  Ca   0.673766
     6  Ca   0.819723
     7  P    0.782696
     8  Ca   1.343555
     9  O   -0.674143
 Sum of Mulliken charges=   1.00000

 Dipole moment (field-independent basis, Debye):
    X=     1.2217    Y=    -3.0595    Z=     0.0923  Tot=     3.2957
 Quadrupole moment (field-independent basis, Debye-Ang):
   XX=   -56.4808   YY=   -66.8112   ZZ=   -86.5015
   XY=    -4.2052   XZ=    -0.0867   YZ=    -1.3486

 Normal termination of Gaussian 03 at Fri Jun 12 18:07:13 2015.
