 Gaussian 03, Revision E.01,
 Gaussian 03:  EM64T-G03RevE.01 11-Sep-2007

 ----------------------------------------------------
 # b3lyp/6-31+G(d,p) int=ultrafine pop=(ReadRadii,MK)
 ----------------------------------------------------

 ----------------------------------------
 mol_17.27.15.pdbccc_plusQ.z58482.zip.xyz
 ----------------------------------------
 Symbolic Z-matrix:
 Charge =  1 Multiplicity = 1

                         Standard orientation:
 ---------------------------------------------------------------------
 Center     Atomic     Atomic              Coordinates (Angstroms)
 Number     Number      Type              X           Y           Z
 ---------------------------------------------------------------------
    1          8             0       -1.613100    1.040648    0.008771
    2          8             0        2.874580    1.416393   -0.002569
    3         20             0        0.725750    1.518541    0.003601
    4          8             0        0.823822   -0.881379    0.778971
    5          8             0        0.819662   -0.879309   -0.776659
    6         20             0       -1.221907   -1.492771    0.005701
    7         15             0       -3.170430    0.867167   -0.005419
    8          8             0       -3.410918   -0.652973   -0.009479
    9         20             0        3.076362   -0.693497   -0.004849
 ---------------------------------------------------------------------

 SCF Done:  E(RB+HF-LYP) =  -2750.19922655     A.U. after    8 cycles

 The electronic state is 1-A.
 Alpha  occ. eigenvalues -- -145.53305-145.48106-145.46497 -77.31647 -19.29958
 Alpha  occ. eigenvalues --  -19.29139 -19.27655 -19.27650 -19.10312 -15.60150
 Alpha  occ. eigenvalues --  -15.54942 -15.53356 -12.73386 -12.73382 -12.73217
 Alpha  occ. eigenvalues --  -12.68161 -12.68125 -12.68046 -12.66610 -12.66574
 Alpha  occ. eigenvalues --  -12.66405  -6.77271  -4.93703  -4.93471  -4.93053
 Alpha  occ. eigenvalues --   -1.97335  -1.92139  -1.90667  -1.25317  -1.25145
 Alpha  occ. eigenvalues --   -1.25007  -1.20357  -1.19794  -1.19242  -1.18527
 Alpha  occ. eigenvalues --   -1.18451  -1.17871  -1.15552  -1.10910  -1.09765
 Alpha  occ. eigenvalues --   -0.91288  -0.84521  -0.68931  -0.57899  -0.55272
 Alpha  occ. eigenvalues --   -0.54483  -0.51220  -0.50445  -0.49460  -0.46903
 Alpha  occ. eigenvalues --   -0.45456  -0.42699  -0.38844  -0.36712  -0.30148
 Alpha  occ. eigenvalues --   -0.28564  -0.28511
 Alpha virt. eigenvalues --   -0.21596  -0.19566  -0.17912  -0.15026  -0.15010
 Alpha virt. eigenvalues --   -0.11255  -0.10532  -0.09852  -0.09288  -0.08793
 Alpha virt. eigenvalues --   -0.08673  -0.08136  -0.07317  -0.06844  -0.06404

 Mulliken atomic charges:
              1
     1  O   -0.742586
     2  O   -1.123807
     3  Ca   1.356083
     4  O   -0.694193
     5  O   -0.694515
     6  Ca   1.503242
     7  P    0.680110
     8  O   -0.647357
     9  Ca   1.363024
 Sum of Mulliken charges=   1.00000

 Dipole moment (field-independent basis, Debye):
    X=    -0.3516    Y=    -7.6432    Z=     0.0303  Tot=     7.6514
 Quadrupole moment (field-independent basis, Debye-Ang):
   XX=   -63.3875   YY=   -57.0772   ZZ=   -77.2572
   XY=   -23.1551   XZ=    -0.1437   YZ=    -0.0240

 Normal termination of Gaussian 03 at Fri Jun 12 18:02:50 2015.
