 Gaussian 03, Revision E.01,
 Gaussian 03:  EM64T-G03RevE.01 11-Sep-2007

 ----------------------------------------------------
 # b3lyp/6-31+G(d,p) int=ultrafine pop=(ReadRadii,MK)
 ----------------------------------------------------

 ------------------------------------------
 mol_16.4.46.pdbcc_plusQ.out.z51596.zip.xyz
 ------------------------------------------
 Symbolic Z-matrix:
 Charge =  1 Multiplicity = 1

                         Standard orientation:
 ---------------------------------------------------------------------
 Center     Atomic     Atomic              Coordinates (Angstroms)
 Number     Number      Type              X           Y           Z
 ---------------------------------------------------------------------
    1          8             0        0.200806   -1.709189   -0.000132
    2          8             0        1.527377    1.395704    0.000928
    3         20             0       -0.517548    1.931985   -0.000202
    4         15             0       -1.329265   -1.577293   -0.000162
    5          8             0       -1.726450   -0.026937   -0.768002
    6          8             0       -1.727930   -0.028417    0.768248
    7         20             0        2.204976   -0.601480   -0.000092
 ---------------------------------------------------------------------

 SCF Done:  E(RB+HF-LYP) =  -1997.25492766     A.U. after    8 cycles

 The electronic state is 1-A.
 Alpha  occ. eigenvalues -- -145.52560-145.52304 -77.32939 -19.36121 -19.36031
 Alpha  occ. eigenvalues --  -19.28494 -19.15023 -15.59428 -15.59145 -12.72677
 Alpha  occ. eigenvalues --  -12.72602 -12.72511 -12.72378 -12.72348 -12.72228
 Alpha  occ. eigenvalues --   -6.78136  -4.94519  -4.94429  -4.93874  -1.96568
 Alpha  occ. eigenvalues --   -1.96256  -1.27105  -1.24353  -1.24150  -1.23933
 Alpha  occ. eigenvalues --   -1.23704  -1.23134  -1.22471  -1.12152  -1.00021
 Alpha  occ. eigenvalues --   -0.89425  -0.73037  -0.60914  -0.58902  -0.57893
 Alpha  occ. eigenvalues --   -0.53904  -0.48257  -0.46910  -0.42438  -0.42266
 Alpha  occ. eigenvalues --   -0.35634  -0.33597  -0.33507
 Alpha virt. eigenvalues --   -0.20899  -0.19541  -0.19412  -0.16449  -0.12534
 Alpha virt. eigenvalues --   -0.11231  -0.11081  -0.11010  -0.10014  -0.08470
 Alpha virt. eigenvalues --   -0.07621  -0.06638  -0.06226  -0.05389  -0.05361

 Mulliken atomic charges:
              1
     1  O   -0.753376
     2  O   -1.187936
     3  Ca   1.460077
     4  P    0.848665
     5  O   -0.421644
     6  O   -0.423141
     7  Ca   1.477354
 Sum of Mulliken charges=   1.00000

 Dipole moment (field-independent basis, Debye):
    X=     3.9525    Y=     1.6942    Z=    -0.0150  Tot=     4.3004
 Quadrupole moment (field-independent basis, Debye-Ang):
   XX=   -36.7536   YY=   -39.1612   ZZ=   -56.5030
   XY=   -26.7292   XZ=     0.0031   YZ=    -0.0094

 Normal termination of Gaussian 03 at Fri Jun 12 17:48:49 2015.
