 Gaussian 03, Revision E.01,
 Gaussian 03:  EM64T-G03RevE.01 11-Sep-2007

 ----------------------------------------------------
 # b3lyp/6-31+G(d,p) int=ultrafine pop=(ReadRadii,MK)
 ----------------------------------------------------

 -----------------------------------------
 mol_17.27.38.pdbcccc_plusQ.z58504.zip.xyz
 -----------------------------------------
 Symbolic Z-matrix:
 Charge =  1 Multiplicity = 1

                         Standard orientation:
 ---------------------------------------------------------------------
 Center     Atomic     Atomic              Coordinates (Angstroms)
 Number     Number      Type              X           Y           Z
 ---------------------------------------------------------------------
    1          8             0        1.704870    0.744091   -0.001169
    2          8             0       -0.691037   -2.007341   -0.784329
    3          8             0       -0.688527   -2.006421    0.785001
    4         20             0        1.366193   -1.717319   -0.003119
    5         15             0        3.297950    0.493343    0.003971
    6         20             0       -2.390648   -0.719783    0.002341
    7         20             0       -0.057402    2.282149   -0.002319
    8          8             0       -1.903251    1.365517   -0.785239
    9          8             0       -1.901071    1.366517    0.786031
 ---------------------------------------------------------------------

 SCF Done:  E(RB+HF-LYP) =  -2750.03107829     A.U. after   11 cycles

 The electronic state is 1-A.
 Alpha  occ. eigenvalues -- -145.52409-145.50015-145.45809 -77.26739 -19.31841
 Alpha  occ. eigenvalues --  -19.23316 -19.22904 -19.22735 -19.22478 -15.59228
 Alpha  occ. eigenvalues --  -15.56919 -15.52708 -12.72455 -12.72441 -12.72321
 Alpha  occ. eigenvalues --  -12.70147 -12.70142 -12.69984 -12.65944 -12.65896
 Alpha  occ. eigenvalues --  -12.65796  -6.73065  -4.89824  -4.89311  -4.88312
 Alpha  occ. eigenvalues --   -1.96365  -1.94170  -1.90034  -1.24293  -1.23945
 Alpha  occ. eigenvalues --   -1.23903  -1.22055  -1.21911  -1.21840  -1.18183
 Alpha  occ. eigenvalues --   -1.17943  -1.17544  -1.12745  -1.05801  -1.04940
 Alpha  occ. eigenvalues --   -0.86937  -0.86382  -0.69544  -0.53341  -0.52067
 Alpha  occ. eigenvalues --   -0.51737  -0.46552  -0.46009  -0.45772  -0.44529
 Alpha  occ. eigenvalues --   -0.44030  -0.42837  -0.34700  -0.34106  -0.31952
 Alpha  occ. eigenvalues --   -0.31939  -0.30580
 Alpha virt. eigenvalues --   -0.26216  -0.19865  -0.17102  -0.14483  -0.13316
 Alpha virt. eigenvalues --   -0.12578  -0.11443  -0.09765  -0.09250  -0.08743
 Alpha virt. eigenvalues --   -0.07230  -0.07108  -0.06593  -0.06002  -0.05848

 Mulliken atomic charges:
              1
     1  O   -0.702392
     2  O   -0.667504
     3  O   -0.672783
     4  Ca   1.354818
     5  P    0.053490
     6  Ca   1.453389
     7  Ca   1.510904
     8  O   -0.660627
     9  O   -0.669297
 Sum of Mulliken charges=   1.00000

 Dipole moment (field-independent basis, Debye):
    X=     3.4517    Y=     2.5809    Z=    -0.0775  Tot=     4.3106
 Quadrupole moment (field-independent basis, Debye-Ang):
   XX=   -54.1210   YY=   -51.2976   ZZ=   -81.1228
   XY=     2.6705   XZ=    -0.0094   YZ=    -0.0225

 Normal termination of Gaussian 03 at Fri Jun 12 18:07:06 2015.
