 Gaussian 03, Revision E.01,
 Gaussian 03:  EM64T-G03RevE.01 11-Sep-2007

 ----------------------------------------------------
 # b3lyp/6-31+G(d,p) int=ultrafine pop=(ReadRadii,MK)
 ----------------------------------------------------

 ---------------------------------------
 mol_17.24.44.pdbcc_plusQ.z58297.zip.xyz
 ---------------------------------------
 Symbolic Z-matrix:
 Charge =  1 Multiplicity = 1

                         Standard orientation:
 ---------------------------------------------------------------------
 Center     Atomic     Atomic              Coordinates (Angstroms)
 Number     Number      Type              X           Y           Z
 ---------------------------------------------------------------------
    1          8             0       -4.609182   -0.859037   -0.486440
    2          8             0       -4.731962    0.087733    0.497970
    3         20             0       -2.542282   -0.099479    0.009380
    4          8             0       -0.445411    0.835080   -0.032950
    5         15             0        0.450368   -0.560831    0.023890
    6          8             0        1.530738   -0.324702   -1.188740
    7          8             0        1.532788   -0.225182    1.211760
    8         20             0        1.577910    1.936148   -0.076640
    9         20             0        3.315807   -1.221603    0.048700
 ---------------------------------------------------------------------

 SCF Done:  E(RB+HF-LYP) =  -2750.07097830     A.U. after   26 cycles

 The electronic state is 1-A.
 Alpha  occ. eigenvalues -- -145.55812-145.55790-145.50343 -77.28861 -19.26657
 Alpha  occ. eigenvalues --  -19.26623 -19.26004 -19.24603 -19.24598 -15.62650
 Alpha  occ. eigenvalues --  -15.62599 -15.57219 -12.75883 -12.75814 -12.75797
 Alpha  occ. eigenvalues --  -12.75793 -12.75762 -12.75739 -12.70498 -12.70441
 Alpha  occ. eigenvalues --  -12.70257  -6.74191  -4.90579  -4.90503  -4.90052
 Alpha  occ. eigenvalues --   -1.99646  -1.99567  -1.94447  -1.27535  -1.27290
 Alpha  occ. eigenvalues --   -1.26957  -1.26920  -1.26821  -1.26734  -1.23185
 Alpha  occ. eigenvalues --   -1.22357  -1.22055  -1.15011  -1.11884  -1.05520
 Alpha  occ. eigenvalues --   -1.03653  -0.83765  -0.66283  -0.54657  -0.53924
 Alpha  occ. eigenvalues --   -0.53369  -0.50443  -0.48153  -0.47386  -0.47235
 Alpha  occ. eigenvalues --   -0.46080  -0.44380  -0.41692  -0.39046  -0.36747
 Alpha  occ. eigenvalues --   -0.30652  -0.26417
 Alpha virt. eigenvalues --   -0.25061  -0.22389  -0.16923  -0.16064  -0.14835
 Alpha virt. eigenvalues --   -0.13375  -0.12939  -0.11791  -0.11357  -0.09246
 Alpha virt. eigenvalues --   -0.09080  -0.08423  -0.07703  -0.07588  -0.06529

 Mulliken atomic charges:
              1
     1  O   -0.345533
     2  O   -0.345821
     3  Ca   1.285597
     4  O   -0.913484
     5  P    0.721607
     6  O   -0.879967
     7  O   -0.877519
     8  Ca   1.234456
     9  Ca   1.120664
 Sum of Mulliken charges=   1.00000

 Dipole moment (field-independent basis, Debye):
    X=    15.0975    Y=     3.3288    Z=    -0.0687  Tot=    15.4603
 Quadrupole moment (field-independent basis, Debye-Ang):
   XX=   -73.0353   YY=   -52.7778   ZZ=   -90.0777
   XY=   -10.3180   XZ=     0.3399   YZ=    -2.9068

 Normal termination of Gaussian 03 at Fri Jun 12 17:58:52 2015.
