 Gaussian 03, Revision E.01,
 Gaussian 03:  EM64T-G03RevE.01 11-Sep-2007

 ----------------------------------------------------
 # b3lyp/6-31+G(d,p) int=ultrafine pop=(ReadRadii,MK)
 ----------------------------------------------------

 --------------------------------------
 mol_17.25.47.pdbc_plusQ.z58352.zip.xyz
 --------------------------------------
 Symbolic Z-matrix:
 Charge =  1 Multiplicity = 1

                         Standard orientation:
 ---------------------------------------------------------------------
 Center     Atomic     Atomic              Coordinates (Angstroms)
 Number     Number      Type              X           Y           Z
 ---------------------------------------------------------------------
    1          8             0        1.953210   -1.099001    0.828438
    2          8             0       -0.522580   -0.171310    1.302988
    3         15             0        0.574370   -0.601140    0.279928
    4          8             0       -2.811580    0.818961   -0.553632
    5          8             0       -0.072441   -1.563030   -0.736502
    6          8             0        1.006520    0.834340   -0.443172
    7         20             0       -2.318110   -1.232289   -0.176552
    8         20             0        3.183100    0.272639   -0.368702
    9         20             0       -1.117019    1.882521    0.176058
 ---------------------------------------------------------------------

 SCF Done:  E(RB+HF-LYP) =  -2750.27056961     A.U. after    8 cycles

 The electronic state is 1-A.
 Alpha  occ. eigenvalues -- -145.54089-145.50138-145.48984 -77.31047 -19.24173
 Alpha  occ. eigenvalues --  -19.23665 -19.21875 -19.20858 -19.18152 -15.60967
 Alpha  occ. eigenvalues --  -15.56957 -15.55841 -12.74195 -12.74123 -12.74089
 Alpha  occ. eigenvalues --  -12.70186 -12.70170 -12.70046 -12.69067 -12.69040
 Alpha  occ. eigenvalues --  -12.68929  -6.75425  -4.91866  -4.91747  -4.91703
 Alpha  occ. eigenvalues --   -1.98106  -1.94075  -1.93083  -1.25865  -1.25687
 Alpha  occ. eigenvalues --   -1.25374  -1.22135  -1.21674  -1.21368  -1.20846
 Alpha  occ. eigenvalues --   -1.20702  -1.20181  -1.12642  -1.04545  -1.03635
 Alpha  occ. eigenvalues --   -1.02498  -0.91222  -0.62572  -0.53999  -0.53448
 Alpha  occ. eigenvalues --   -0.52601  -0.46919  -0.44710  -0.44008  -0.42395
 Alpha  occ. eigenvalues --   -0.41901  -0.39387  -0.37986  -0.37089  -0.36215
 Alpha  occ. eigenvalues --   -0.34523  -0.34269
 Alpha virt. eigenvalues --   -0.21873  -0.18261  -0.16950  -0.13037  -0.12212
 Alpha virt. eigenvalues --   -0.10147  -0.09970  -0.09102  -0.08416  -0.07738
 Alpha virt. eigenvalues --   -0.07114  -0.06525  -0.05536  -0.05309  -0.04908

 Mulliken atomic charges:
              1
     1  O   -0.881615
     2  O   -1.040369
     3  P    1.800534
     4  O   -1.339109
     5  O   -0.889793
     6  O   -1.123300
     7  Ca   1.435395
     8  Ca   1.584376
     9  Ca   1.453882
 Sum of Mulliken charges=   1.00000

 Dipole moment (field-independent basis, Debye):
    X=    14.3826    Y=     4.6893    Z=    -0.7325  Tot=    15.1455
 Quadrupole moment (field-independent basis, Debye-Ang):
   XX=   -12.3453   YY=   -49.2852   ZZ=   -83.3840
   XY=    32.0015   XZ=   -20.3450   YZ=     7.3290

 Normal termination of Gaussian 03 at Fri Jun 12 17:58:26 2015.
