 Gaussian 03, Revision E.01,
 Gaussian 03:  EM64T-G03RevE.01 11-Sep-2007

 ----------------------------------------------------
 # b3lyp/6-31+G(d,p) int=ultrafine pop=(ReadRadii,MK)
 ----------------------------------------------------

 ----------------------------------------
 mol_17.28.57.pdbccc_plusQ.z58582.zip.xyz
 ----------------------------------------
 Symbolic Z-matrix:
 Charge =  1 Multiplicity = 1

                         Standard orientation:
 ---------------------------------------------------------------------
 Center     Atomic     Atomic              Coordinates (Angstroms)
 Number     Number      Type              X           Y           Z
 ---------------------------------------------------------------------
    1          8             0       -2.114163    0.143314   -0.062549
    2          8             0       -1.551944   -1.013422   -0.881989
    3         15             0        0.118517   -1.140239   -1.427049
    4          8             0        0.640985    0.416755   -1.500779
    5         20             0       -0.725866    1.915214   -0.336209
    6          8             0        0.835651   -1.604484   -0.012089
    7         20             0        2.163057    0.234906    0.312251
    8         20             0       -0.819075   -0.889627    1.515421
    9          8             0        0.421961    1.044553    1.404471
 ---------------------------------------------------------------------

 SCF Done:  E(RB+HF-LYP) =  -2750.21036023     A.U. after    8 cycles

 The electronic state is 1-A.
 Alpha  occ. eigenvalues -- -145.50965-145.50031-145.49668 -77.27040 -19.28852
 Alpha  occ. eigenvalues --  -19.25351 -19.23428 -19.23034 -19.16658 -15.57801
 Alpha  occ. eigenvalues --  -15.56856 -15.56460 -12.71010 -12.70973 -12.70924
 Alpha  occ. eigenvalues --  -12.70049 -12.70039 -12.69994 -12.69680 -12.69623
 Alpha  occ. eigenvalues --  -12.69609  -6.72135  -4.88562  -4.88423  -4.87900
 Alpha  occ. eigenvalues --   -1.95103  -1.94140  -1.93673  -1.23169  -1.22840
 Alpha  occ. eigenvalues --   -1.22455  -1.22334  -1.21696  -1.21426  -1.21272
 Alpha  occ. eigenvalues --   -1.21083  -1.20715  -1.13178  -1.07394  -1.02696
 Alpha  occ. eigenvalues --   -0.93113  -0.91570  -0.65296  -0.55841  -0.52715
 Alpha  occ. eigenvalues --   -0.51423  -0.48521  -0.47290  -0.44385  -0.42319
 Alpha  occ. eigenvalues --   -0.39785  -0.38427  -0.37053  -0.36739  -0.35863
 Alpha  occ. eigenvalues --   -0.34635  -0.32793
 Alpha virt. eigenvalues --   -0.20650  -0.18457  -0.17448  -0.13985  -0.12919
 Alpha virt. eigenvalues --   -0.11313  -0.10748  -0.09642  -0.08862  -0.08056
 Alpha virt. eigenvalues --   -0.07440  -0.06425  -0.06170  -0.05806  -0.05305

 Mulliken atomic charges:
              1
     1  O   -0.621193
     2  O   -0.486747
     3  P    1.074168
     4  O   -1.037032
     5  Ca   1.494564
     6  O   -1.033506
     7  Ca   1.421856
     8  Ca   1.451771
     9  O   -1.263880
 Sum of Mulliken charges=   1.00000

 Dipole moment (field-independent basis, Debye):
    X=     4.9125    Y=     5.7879    Z=     5.8624  Tot=     9.5916
 Quadrupole moment (field-independent basis, Debye-Ang):
   XX=   -52.0488   YY=   -58.0304   ZZ=   -75.4674
   XY=    -2.2110   XZ=    -5.9914   YZ=   -22.4391

 Normal termination of Gaussian 03 at Fri Jun 12 18:11:06 2015.
