 Gaussian 03, Revision E.01,
 Gaussian 03:  EM64T-G03RevE.01 11-Sep-2007

 ----------------------------------------------------
 # b3lyp/6-31+G(d,p) int=ultrafine pop=(ReadRadii,MK)
 ----------------------------------------------------

 ------------------------------------------
 mol_16.4.10.pdbcc_plusQ.out.z51561.zip.xyz
 ------------------------------------------
 Symbolic Z-matrix:
 Charge =  1 Multiplicity = 1

                         Standard orientation:
 ---------------------------------------------------------------------
 Center     Atomic     Atomic              Coordinates (Angstroms)
 Number     Number      Type              X           Y           Z
 ---------------------------------------------------------------------
    1          8             0        1.713358    0.000704    0.786250
    2          8             0        1.713428    0.000704   -0.786190
    3          8             0       -1.441795   -1.274005   -0.000090
    4         15             0       -2.320002   -0.000946    0.000060
    5          8             0       -1.443000    1.272955   -0.000060
    6         20             0        0.760786    1.858403   -0.000010
    7         20             0        0.762419   -1.857837    0.000000
 ---------------------------------------------------------------------

 SCF Done:  E(RB+HF-LYP) =  -1997.33372470     A.U. after    6 cycles

 The electronic state is 1-A.
 Alpha  occ. eigenvalues -- -145.53246-145.53245 -77.30162 -19.27954 -19.27950
 Alpha  occ. eigenvalues --  -19.25591 -19.25586 -15.60093 -15.60093 -12.73308
 Alpha  occ. eigenvalues --  -12.73307 -12.73290 -12.73289 -12.73208 -12.73206
 Alpha  occ. eigenvalues --   -6.75643  -4.92083  -4.91868  -4.91423  -1.97236
 Alpha  occ. eigenvalues --   -1.97210  -1.25765  -1.24806  -1.24792  -1.24725
 Alpha  occ. eigenvalues --   -1.24725  -1.24302  -1.13923  -1.08554  -1.08249
 Alpha  occ. eigenvalues --   -0.89522  -0.67705  -0.57281  -0.52822  -0.52600
 Alpha  occ. eigenvalues --   -0.48993  -0.47945  -0.46120  -0.45761  -0.43900
 Alpha  occ. eigenvalues --   -0.40700  -0.37191  -0.34167
 Alpha virt. eigenvalues --   -0.20456  -0.19853  -0.19631  -0.14482  -0.11367
 Alpha virt. eigenvalues --   -0.11280  -0.10319  -0.09666  -0.09045  -0.07375
 Alpha virt. eigenvalues --   -0.07215  -0.06432  -0.05962  -0.05215  -0.04857

 Mulliken atomic charges:
              1
     1  O   -0.668549
     2  O   -0.668560
     3  O   -0.709801
     4  P    0.668754
     5  O   -0.709863
     6  Ca   1.544006
     7  Ca   1.544013
 Sum of Mulliken charges=   1.00000

 Dipole moment (field-independent basis, Debye):
    X=     3.1409    Y=     0.0001    Z=     0.0003  Tot=     3.1409
 Quadrupole moment (field-independent basis, Debye-Ang):
   XX=   -66.5052   YY=    -8.8845   ZZ=   -58.2534
   XY=    -0.0241   XZ=    -0.0004   YZ=    -0.0003

 Normal termination of Gaussian 03 at Fri Jun 12 17:46:17 2015.
