 Gaussian 03, Revision E.01,
 Gaussian 03:  EM64T-G03RevE.01 11-Sep-2007

 ----------------------------------------------------
 # b3lyp/6-31+G(d,p) int=ultrafine pop=(ReadRadii,MK)
 ----------------------------------------------------

 -----------------------------------------
 mol_16.4.30.pdbc_plusQ.out.z51580.zip.xyz
 -----------------------------------------
 Symbolic Z-matrix:
 Charge =  1 Multiplicity = 1

                         Standard orientation:
 ---------------------------------------------------------------------
 Center     Atomic     Atomic              Coordinates (Angstroms)
 Number     Number      Type              X           Y           Z
 ---------------------------------------------------------------------
    1          8             0       -2.193285    0.000063    0.000411
    2         20             0       -1.256534    1.893938    0.000117
    3         15             0        1.776587   -0.000019   -0.000030
    4          8             0        3.246974   -0.000304    0.000351
    5          8             0        0.948981   -1.278047    0.000379
    6         20             0       -1.256694   -1.893895   -0.000213
    7          8             0        0.949299    1.278214   -0.000843
 ---------------------------------------------------------------------

 SCF Done:  E(RB+HF-LYP) =  -1997.36495569     A.U. after    9 cycles

 The electronic state is 1-A.
 Alpha  occ. eigenvalues -- -145.53595-145.53595 -77.35862 -19.29932 -19.29931
 Alpha  occ. eigenvalues --  -19.27566 -19.15852 -15.60451 -15.60450 -12.73701
 Alpha  occ. eigenvalues --  -12.73700 -12.73626 -12.73625 -12.73536 -12.73534
 Alpha  occ. eigenvalues --   -6.81070  -4.97688  -4.97217  -4.97121  -1.97568
 Alpha  occ. eigenvalues --   -1.97551  -1.25349  -1.25330  -1.25298  -1.25085
 Alpha  occ. eigenvalues --   -1.24706  -1.24175  -1.18402  -1.11388  -1.10404
 Alpha  occ. eigenvalues --   -0.90349  -0.67786  -0.60016  -0.56617  -0.55843
 Alpha  occ. eigenvalues --   -0.50174  -0.48059  -0.47799  -0.45417  -0.42512
 Alpha  occ. eigenvalues --   -0.36651  -0.34565  -0.34388
 Alpha virt. eigenvalues --   -0.22299  -0.20459  -0.16814  -0.14889  -0.13474
 Alpha virt. eigenvalues --   -0.12519  -0.11816  -0.10787  -0.09942  -0.08257
 Alpha virt. eigenvalues --   -0.07257  -0.06248  -0.05558  -0.05269  -0.04860

 Mulliken atomic charges:
              1
     1  O   -1.197505
     2  Ca   1.485232
     3  P    1.559218
     4  O   -0.611802
     5  O   -0.860209
     6  Ca   1.485237
     7  O   -0.860170
 Sum of Mulliken charges=   1.00000

 Dipole moment (field-independent basis, Debye):
    X=    -8.6749    Y=     0.0001    Z=    -0.0027  Tot=     8.6749
 Quadrupole moment (field-independent basis, Debye-Ang):
   XX=   -74.7381   YY=    -7.7862   ZZ=   -53.5432
   XY=     0.0033   XZ=     0.0043   YZ=     0.0108

 Normal termination of Gaussian 03 at Fri Jun 12 17:48:21 2015.
