 Gaussian 03, Revision E.01,
 Gaussian 03:  EM64T-G03RevE.01 11-Sep-2007

 ----------------------------------------------------
 # b3lyp/6-31+G(d,p) int=ultrafine pop=(ReadRadii,MK)
 ----------------------------------------------------

 -----------------------------------------
 mol_16.4.49.pdbc_plusQ.out.z51599.zip.xyz
 -----------------------------------------
 Symbolic Z-matrix:
 Charge =  1 Multiplicity = 1

                         Standard orientation:
 ---------------------------------------------------------------------
 Center     Atomic     Atomic              Coordinates (Angstroms)
 Number     Number      Type              X           Y           Z
 ---------------------------------------------------------------------
    1         20             0        2.069330   -0.753399   -0.000099
    2          8             0        1.381717    1.464300    0.000461
    3          8             0        0.000419   -0.330191   -1.197049
    4         15             0       -0.000002    0.799699    0.000091
    5          8             0       -0.000361   -0.330851    1.197161
    6         20             0       -2.069350   -0.753394   -0.000099
    7          8             0       -1.381723    1.464287   -0.000249
 ---------------------------------------------------------------------

 SCF Done:  E(RB+HF-LYP) =  -1997.39007831     A.U. after    8 cycles

 The electronic state is 1-A.
 Alpha  occ. eigenvalues -- -145.57694-145.57693 -77.31330 -19.22616 -19.22613
 Alpha  occ. eigenvalues --  -19.22305 -19.22280 -15.64396 -15.64394 -12.77595
 Alpha  occ. eigenvalues --  -12.77594 -12.77582 -12.77581 -12.77581 -12.77579
 Alpha  occ. eigenvalues --   -6.76051  -4.92399  -4.92392  -4.92316  -2.01225
 Alpha  occ. eigenvalues --   -2.01218  -1.29332  -1.28819  -1.28440  -1.28440
 Alpha  occ. eigenvalues --   -1.28384  -1.28336  -1.12989  -1.05501  -1.03664
 Alpha  occ. eigenvalues --   -1.01675  -0.62397  -0.53175  -0.53140  -0.52458
 Alpha  occ. eigenvalues --   -0.45693  -0.45585  -0.45184  -0.42428  -0.40459
 Alpha  occ. eigenvalues --   -0.39280  -0.37996  -0.35883
 Alpha virt. eigenvalues --   -0.23655  -0.22443  -0.14871  -0.13487  -0.12800
 Alpha virt. eigenvalues --   -0.12506  -0.10779  -0.08514  -0.07911  -0.06634
 Alpha virt. eigenvalues --   -0.05355  -0.05333  -0.04645  -0.04456  -0.04312

 Mulliken atomic charges:
              1
     1  Ca   1.483077
     2  O   -0.825916
     3  O   -1.018029
     4  P    1.722003
     5  O   -1.018300
     6  Ca   1.483089
     7  O   -0.825924
 Sum of Mulliken charges=   1.00000

 Dipole moment (field-independent basis, Debye):
    X=    -0.0003    Y=   -13.9802    Z=    -0.0046  Tot=    13.9802
 Quadrupole moment (field-independent basis, Debye-Ang):
   XX=     3.5211   YY=   -55.5513   ZZ=   -66.8003
   XY=     0.0002   XZ=     0.0006   YZ=     0.0045

 Normal termination of Gaussian 03 at Fri Jun 12 17:48:59 2015.
