 Gaussian 03, Revision E.01,
 Gaussian 03:  EM64T-G03RevE.01 11-Sep-2007

 ----------------------------------------------------
 # b3lyp/6-31+G(d,p) int=ultrafine pop=(ReadRadii,MK)
 ----------------------------------------------------

 ----------------------------------------
 mol_17.22.36.pdbccc_plusQ.z58190.zip.xyz
 ----------------------------------------
 Symbolic Z-matrix:
 Charge =  1 Multiplicity = 1

                         Standard orientation:
 ---------------------------------------------------------------------
 Center     Atomic     Atomic              Coordinates (Angstroms)
 Number     Number      Type              X           Y           Z
 ---------------------------------------------------------------------
    1          8             0        1.612929    1.040480    0.001409
    2         15             0        3.170299    0.866890   -0.000671
    3         20             0        1.221469   -1.492970    0.001079
    4          8             0        3.410399   -0.653320   -0.001951
    5          8             0       -0.821491   -0.879720   -0.777731
    6          8             0       -0.821951   -0.879630    0.777799
    7         20             0       -3.075161   -0.694400   -0.000691
    8          8             0       -2.874791    1.415600   -0.000311
    9         20             0       -0.726071    1.519840    0.000429
 ---------------------------------------------------------------------

 SCF Done:  E(RB+HF-LYP) =  -2750.19922775     A.U. after    8 cycles

 The electronic state is 1-A.
 Alpha  occ. eigenvalues -- -145.53300-145.48091-145.46504 -77.31644 -19.29954
 Alpha  occ. eigenvalues --  -19.29134 -19.27654 -19.27649 -19.10308 -15.60145
 Alpha  occ. eigenvalues --  -15.54928 -15.53363 -12.73381 -12.73377 -12.73211
 Alpha  occ. eigenvalues --  -12.68147 -12.68111 -12.68032 -12.66617 -12.66581
 Alpha  occ. eigenvalues --  -12.66412  -6.77268  -4.93701  -4.93468  -4.93050
 Alpha  occ. eigenvalues --   -1.97330  -1.92127  -1.90672  -1.25313  -1.25143
 Alpha  occ. eigenvalues --   -1.25003  -1.20352  -1.19782  -1.19232  -1.18532
 Alpha  occ. eigenvalues --   -1.18453  -1.17871  -1.15551  -1.10911  -1.09761
 Alpha  occ. eigenvalues --   -0.91288  -0.84517  -0.68927  -0.57895  -0.55269
 Alpha  occ. eigenvalues --   -0.54480  -0.51223  -0.50446  -0.49464  -0.46898
 Alpha  occ. eigenvalues --   -0.45450  -0.42697  -0.38846  -0.36713  -0.30145
 Alpha  occ. eigenvalues --   -0.28560  -0.28507
 Alpha virt. eigenvalues --   -0.21594  -0.19566  -0.17908  -0.15031  -0.15008
 Alpha virt. eigenvalues --   -0.11255  -0.10530  -0.09853  -0.09285  -0.08794
 Alpha virt. eigenvalues --   -0.08672  -0.08135  -0.07317  -0.06845  -0.06402

 Mulliken atomic charges:
              1
     1  O   -0.742726
     2  P    0.680176
     3  Ca   1.503208
     4  O   -0.647438
     5  O   -0.694341
     6  O   -0.694258
     7  Ca   1.362881
     8  O   -1.123928
     9  Ca   1.356427
 Sum of Mulliken charges=   1.00000

 Dipole moment (field-independent basis, Debye):
    X=     0.3569    Y=    -7.6396    Z=     0.0071  Tot=     7.6479
 Quadrupole moment (field-independent basis, Debye-Ang):
   XX=   -63.4535   YY=   -57.0166   ZZ=   -77.2562
   XY=    23.1557   XZ=     0.0277   YZ=    -0.0125

 Normal termination of Gaussian 03 at Fri Jun 12 17:50:35 2015.
