 Gaussian 03, Revision E.01,
 Gaussian 03:  EM64T-G03RevE.01 11-Sep-2007

 ----------------------------------------------------
 # b3lyp/6-31+G(d,p) int=ultrafine pop=(ReadRadii,MK)
 ----------------------------------------------------

 ---------------------------------------
 mol_17.26.17.pdbcc_plusQ.z58376.zip.xyz
 ---------------------------------------
 Symbolic Z-matrix:
 Charge =  1 Multiplicity = 1

                         Standard orientation:
 ---------------------------------------------------------------------
 Center     Atomic     Atomic              Coordinates (Angstroms)
 Number     Number      Type              X           Y           Z
 ---------------------------------------------------------------------
    1          8             0        1.839720    2.175488    0.000000
    2          8             0       -3.319690   -4.821602    0.000000
    3          8             0       -2.096870   -5.356082    0.000000
    4          8             0       -1.611160   -0.806222    0.000000
    5          8             0       -0.193650   -1.480982    0.000000
    6         20             0       -1.816360   -3.048822    0.000000
    7         20             0        0.000000    0.748908    0.000000
    8         15             0        0.737280    3.545928    0.000000
    9         20             0        3.416060    3.756228    0.000000
 ---------------------------------------------------------------------

 SCF Done:  E(RB+HF-LYP) =  -2749.90312021     A.U. after   18 cycles

 The electronic state is 1-A'.
 Alpha  occ. eigenvalues -- -145.58843-145.47661-145.46107 -77.19991 -19.29089
 Alpha  occ. eigenvalues --  -19.28937 -19.25472 -19.22853 -19.22785 -15.65679
 Alpha  occ. eigenvalues --  -15.54555 -15.53031 -12.78908 -12.78857 -12.78793
 Alpha  occ. eigenvalues --  -12.67843 -12.67750 -12.67601 -12.66324 -12.66224
 Alpha  occ. eigenvalues --  -12.66069  -6.66578  -4.83024  -4.82616  -4.82333
 Alpha  occ. eigenvalues --   -2.02558  -1.91847  -1.90382  -1.30082  -1.29788
 Alpha  occ. eigenvalues --   -1.29702  -1.22308  -1.19881  -1.19869  -1.19353
 Alpha  occ. eigenvalues --   -1.18449  -1.17938  -1.16232  -1.05566  -1.04195
 Alpha  occ. eigenvalues --   -0.86596  -0.84524  -0.64793  -0.52737  -0.50390
 Alpha  occ. eigenvalues --   -0.49687  -0.48761  -0.46244  -0.45651  -0.45563
 Alpha  occ. eigenvalues --   -0.44849  -0.43429  -0.34940  -0.31913  -0.31219
 Alpha  occ. eigenvalues --   -0.30891  -0.26515
 Alpha virt. eigenvalues --   -0.25361  -0.25091  -0.15906  -0.15804  -0.15138
 Alpha virt. eigenvalues --   -0.12980  -0.11505  -0.11046  -0.09789  -0.09606
 Alpha virt. eigenvalues --   -0.08062  -0.07141  -0.06409  -0.05876  -0.05795

 Mulliken atomic charges:
              1
     1  O   -0.740951
     2  O   -0.300018
     3  O   -0.303438
     4  O   -0.649897
     5  O   -0.665861
     6  Ca   1.374481
     7  Ca   1.373122
     8  P   -0.395919
     9  Ca   1.308481
 Sum of Mulliken charges=   1.00000

 Dipole moment (field-independent basis, Debye):
    X=    16.5511    Y=    15.8943    Z=     0.0000  Tot=    22.9470
 Quadrupole moment (field-independent basis, Debye-Ang):
   XX=   -19.4347   YY=   -56.9806   ZZ=   -76.5901
   XY=    55.1545   XZ=     0.0000   YZ=     0.0000

 Normal termination of Gaussian 03 at Fri Jun 12 18:00:21 2015.
