 Gaussian 03, Revision E.01,
 Gaussian 03:  EM64T-G03RevE.01 11-Sep-2007

 ----------------------------------------------------
 # b3lyp/6-31+G(d,p) int=ultrafine pop=(ReadRadii,MK)
 ----------------------------------------------------

 ---------------------------------------
 mol_17.24.0.pdbccc_plusQ.z58265.zip.xyz
 ---------------------------------------
 Symbolic Z-matrix:
 Charge =  1 Multiplicity = 1

                         Standard orientation:
 ---------------------------------------------------------------------
 Center     Atomic     Atomic              Coordinates (Angstroms)
 Number     Number      Type              X           Y           Z
 ---------------------------------------------------------------------
    1          8             0       -1.032325   -2.216111    0.000000
    2         15             0       -2.568535   -2.319223    0.000000
    3          8             0       -3.174327   -0.889944    0.000000
    4          8             0        3.974280    0.945726    0.000000
    5          8             0        2.827422   -0.030346    0.000000
    6          8             0        0.000000    1.122311    0.000000
    7         20             0        0.959913   -1.038918    0.000000
    8         20             0        2.087369    2.073613    0.000000
    9         20             0       -2.158900    1.132068    0.000000
 ---------------------------------------------------------------------

 SCF Done:  E(RB+HF-LYP) =  -2750.16992789     A.U. after   11 cycles

 The electronic state is 1-A'.
 Alpha  occ. eigenvalues -- -145.54772-145.47752-145.47207 -77.30832 -19.28642
 Alpha  occ. eigenvalues --  -19.28542 -19.19602 -19.19178 -19.17169 -15.61656
 Alpha  occ. eigenvalues --  -15.54565 -15.54142 -12.74913 -12.74858 -12.74705
 Alpha  occ. eigenvalues --  -12.67845 -12.67746 -12.67643 -12.67410 -12.67324
 Alpha  occ. eigenvalues --  -12.67181  -6.76341  -4.92782  -4.92562  -4.92120
 Alpha  occ. eigenvalues --   -1.98833  -1.91865  -1.91508  -1.26674  -1.26516
 Alpha  occ. eigenvalues --   -1.25715  -1.20257  -1.19866  -1.19468  -1.19344
 Alpha  occ. eigenvalues --   -1.19051  -1.18405  -1.14651  -1.09125  -1.02396
 Alpha  occ. eigenvalues --   -0.94132  -0.80924  -0.68300  -0.57787  -0.53621
 Alpha  occ. eigenvalues --   -0.53421  -0.46401  -0.44442  -0.43885  -0.41908
 Alpha  occ. eigenvalues --   -0.40836  -0.39464  -0.39309  -0.38759  -0.37953
 Alpha  occ. eigenvalues --   -0.27056  -0.25327
 Alpha virt. eigenvalues --   -0.22489  -0.20592  -0.17890  -0.15413  -0.14411
 Alpha virt. eigenvalues --   -0.12357  -0.11557  -0.10322  -0.09505  -0.08545
 Alpha virt. eigenvalues --   -0.08084  -0.07382  -0.06901  -0.06413  -0.05914

 Mulliken atomic charges:
              1
     1  O   -0.683924
     2  P    0.679552
     3  O   -0.718610
     4  O   -0.625318
     5  O   -0.612609
     6  O   -1.382582
     7  Ca   1.401589
     8  Ca   1.396202
     9  Ca   1.545700
 Sum of Mulliken charges=   1.00000

 Dipole moment (field-independent basis, Debye):
    X=   -10.9209    Y=     8.8755    Z=     0.0000  Tot=    14.0727
 Quadrupole moment (field-independent basis, Debye-Ang):
   XX=   -94.3306   YY=   -38.6795   ZZ=   -73.0976
   XY=    -6.9137   XZ=     0.0000   YZ=     0.0000

 Normal termination of Gaussian 03 at Fri Jun 12 17:54:34 2015.
