 Gaussian 03, Revision E.01,
 Gaussian 03:  EM64T-G03RevE.01 11-Sep-2007

 ----------------------------------------------------
 # b3lyp/6-31+G(d,p) int=ultrafine pop=(ReadRadii,MK)
 ----------------------------------------------------

 ---------------------------------------
 mol_17.23.43.pdbcc_plusQ.z58244.zip.xyz
 ---------------------------------------
 Symbolic Z-matrix:
 Charge =  1 Multiplicity = 1

                         Standard orientation:
 ---------------------------------------------------------------------
 Center     Atomic     Atomic              Coordinates (Angstroms)
 Number     Number      Type              X           Y           Z
 ---------------------------------------------------------------------
    1          8             0       -2.478940    1.490102    0.000000
    2         15             0       -1.422500    0.402142    0.000000
    3          8             0       -1.637980   -1.108288    0.000000
    4         20             0       -0.322221   -2.994868    0.000000
    5          8             0        1.484400   -1.881608    0.000000
    6          8             0        2.997260   -1.836999    0.000000
    7         20             0        2.204550    0.226592    0.000000
    8         20             0       -0.961350    3.370862    0.000000
    9          8             0        0.000000    1.076312    0.000000
 ---------------------------------------------------------------------

 SCF Done:  E(RB+HF-LYP) =  -2750.09115909     A.U. after   14 cycles

 The electronic state is 1-A'.
 Alpha  occ. eigenvalues -- -145.54519-145.52779-145.49591 -77.36541 -19.30658
 Alpha  occ. eigenvalues --  -19.30383 -19.28916 -19.22510 -19.19677 -15.61310
 Alpha  occ. eigenvalues --  -15.59703 -15.56469 -12.74554 -12.74493 -12.74418
 Alpha  occ. eigenvalues --  -12.72901 -12.72861 -12.72823 -12.69735 -12.69648
 Alpha  occ. eigenvalues --  -12.69537  -6.81278  -4.97738  -4.97525  -4.97440
 Alpha  occ. eigenvalues --   -1.98307  -1.96703  -1.93685  -1.25957  -1.25952
 Alpha  occ. eigenvalues --   -1.25482  -1.24434  -1.24129  -1.23929  -1.21566
 Alpha  occ. eigenvalues --   -1.21529  -1.21132  -1.17639  -1.11967  -1.10393
 Alpha  occ. eigenvalues --   -1.05333  -0.84036  -0.69012  -0.60522  -0.57820
 Alpha  occ. eigenvalues --   -0.56434  -0.52260  -0.49467  -0.48495  -0.46593
 Alpha  occ. eigenvalues --   -0.46567  -0.45025  -0.43433  -0.42437  -0.30287
 Alpha  occ. eigenvalues --   -0.28246  -0.25963
 Alpha virt. eigenvalues --   -0.21771  -0.18846  -0.17927  -0.16757  -0.14053
 Alpha virt. eigenvalues --   -0.12960  -0.12442  -0.10982  -0.10496  -0.10396
 Alpha virt. eigenvalues --   -0.09382  -0.07686  -0.07614  -0.06971  -0.06279

 Mulliken atomic charges:
              1
     1  O   -0.534909
     2  P    0.620798
     3  O   -0.736931
     4  Ca   1.362689
     5  O   -0.692442
     6  O   -0.605947
     7  Ca   1.349994
     8  Ca   0.782737
     9  O   -0.545990
 Sum of Mulliken charges=   1.00000

 Dipole moment (field-independent basis, Debye):
    X=    -1.3566    Y=     0.0837    Z=     0.0000  Tot=     1.3591
 Quadrupole moment (field-independent basis, Debye-Ang):
   XX=   -92.2860   YY=   -18.7742   ZZ=   -83.4614
   XY=    20.0469   XZ=     0.0000   YZ=     0.0000

 Normal termination of Gaussian 03 at Fri Jun 12 17:54:04 2015.
