 Gaussian 03, Revision E.01,
 Gaussian 03:  EM64T-G03RevE.01 11-Sep-2007

 ----------------------------------------------------
 # b3lyp/6-31+G(d,p) int=ultrafine pop=(ReadRadii,MK)
 ----------------------------------------------------

 ----------------------------------------
 mol_16.4.42.pdb_plusQ.out.z51592.zip.xyz
 ----------------------------------------
 Symbolic Z-matrix:
 Charge =  1 Multiplicity = 1

                         Standard orientation:
 ---------------------------------------------------------------------
 Center     Atomic     Atomic              Coordinates (Angstroms)
 Number     Number      Type              X           Y           Z
 ---------------------------------------------------------------------
    1          8             0        0.000030    1.449812    1.271850
    2          8             0        0.000030    1.449812   -1.271850
    3         15             0        0.000120    2.326732    0.000000
    4         20             0       -0.000070   -0.612418   -2.221050
    5          8             0        0.000030   -2.100078   -0.719700
    6          8             0        0.000030   -2.100078    0.719700
    7         20             0       -0.000070   -0.612418    2.221050
 ---------------------------------------------------------------------

 SCF Done:  E(RB+HF-LYP) =  -1997.25607107     A.U. after    8 cycles

 The electronic state is 1-A'.
 Alpha  occ. eigenvalues -- -145.54171-145.54167 -77.31245 -19.28996 -19.28996
 Alpha  occ. eigenvalues --  -19.21050 -19.21043 -15.60978 -15.60974 -12.74223
 Alpha  occ. eigenvalues --  -12.74222 -12.74164 -12.74164 -12.74076 -12.74074
 Alpha  occ. eigenvalues --   -6.76714  -4.93156  -4.92940  -4.92492  -1.97994
 Alpha  occ. eigenvalues --   -1.97993  -1.25694  -1.25692  -1.25594  -1.25517
 Alpha  occ. eigenvalues --   -1.25263  -1.25060  -1.14979  -1.09643  -1.07603
 Alpha  occ. eigenvalues --   -0.82759  -0.68932  -0.58515  -0.53716  -0.53670
 Alpha  occ. eigenvalues --   -0.48823  -0.46918  -0.44986  -0.42795  -0.42347
 Alpha  occ. eigenvalues --   -0.41541  -0.28049  -0.28026
 Alpha virt. eigenvalues --   -0.21131  -0.21003  -0.20874  -0.13150  -0.12180
 Alpha virt. eigenvalues --   -0.11932  -0.10649  -0.10492  -0.09071  -0.07622
 Alpha virt. eigenvalues --   -0.06795  -0.06049  -0.05610  -0.05451  -0.04870

 Mulliken atomic charges:
              1
     1  O   -0.719209
     2  O   -0.719209
     3  P    0.690417
     4  Ca   1.472057
     5  O   -0.598058
     6  O   -0.598058
     7  Ca   1.472057
 Sum of Mulliken charges=   1.00000

 Dipole moment (field-independent basis, Debye):
    X=    -0.0011    Y=     1.4973    Z=     0.0000  Tot=     1.4973
 Quadrupole moment (field-independent basis, Debye-Ang):
   XX=   -54.9877   YY=   -78.8966   ZZ=     5.9600
   XY=     0.0010   XZ=     0.0000   YZ=     0.0000

 Normal termination of Gaussian 03 at Fri Jun 12 17:48:04 2015.
