 Gaussian 03, Revision E.01,
 Gaussian 03:  EM64T-G03RevE.01 11-Sep-2007

 ----------------------------------------------------
 # b3lyp/6-31+G(d,p) int=ultrafine pop=(ReadRadii,MK)
 ----------------------------------------------------

 --------------------------------------
 mol_17.29.2.pdbcc_plusQ.z58611.zip.xyz
 --------------------------------------
 Symbolic Z-matrix:
 Charge =  1 Multiplicity = 1

                         Standard orientation:
 ---------------------------------------------------------------------
 Center     Atomic     Atomic              Coordinates (Angstroms)
 Number     Number      Type              X           Y           Z
 ---------------------------------------------------------------------
    1         20             0        2.016212   -1.745604   -0.018800
    2          8             0        2.874987    0.176619    0.254910
    3         20             0        1.713442    1.946385    0.105430
    4         15             0       -0.445202   -0.068881   -0.944830
    5          8             0       -2.113722   -0.300515   -1.214080
    6          8             0       -3.114464    0.671632   -0.623410
    7          8             0       -0.250799   -1.363190    0.084540
    8         20             0       -2.183752   -0.272895    1.152490
    9          8             0       -0.426006    1.124890    0.171790
 ---------------------------------------------------------------------

 SCF Done:  E(RB+HF-LYP) =  -2750.11774712     A.U. after    9 cycles

 The electronic state is 1-A.
 Alpha  occ. eigenvalues -- -145.52027-145.50135-145.49999 -77.26818 -19.27039
 Alpha  occ. eigenvalues --  -19.23362 -19.23085 -19.21554 -19.13356 -15.58786
 Alpha  occ. eigenvalues --  -15.57007 -15.56882 -12.72005 -12.71996 -12.71905
 Alpha  occ. eigenvalues --  -12.70262 -12.70187 -12.70136 -12.70077 -12.70065
 Alpha  occ. eigenvalues --  -12.69948  -6.72117  -4.88490  -4.88432  -4.87948
 Alpha  occ. eigenvalues --   -1.95841  -1.94210  -1.94095  -1.24332  -1.23291
 Alpha  occ. eigenvalues --   -1.22954  -1.22081  -1.21964  -1.21851  -1.21617
 Alpha  occ. eigenvalues --   -1.21250  -1.20760  -1.12235  -1.06807  -1.02501
 Alpha  occ. eigenvalues --   -0.89735  -0.87635  -0.64499  -0.53847  -0.52074
 Alpha  occ. eigenvalues --   -0.51862  -0.46759  -0.45781  -0.42943  -0.42774
 Alpha  occ. eigenvalues --   -0.38457  -0.35820  -0.33768  -0.32242  -0.31971
 Alpha  occ. eigenvalues --   -0.31708  -0.30413
 Alpha virt. eigenvalues --   -0.20010  -0.18998  -0.18429  -0.12840  -0.12140
 Alpha virt. eigenvalues --   -0.11162  -0.10331  -0.10084  -0.09329  -0.08690
 Alpha virt. eigenvalues --   -0.07752  -0.07643  -0.07112  -0.06323  -0.05695

 Mulliken atomic charges:
              1
     1  Ca   1.439542
     2  O   -1.178529
     3  Ca   1.430275
     4  P    0.779598
     5  O   -0.491845
     6  O   -0.492589
     7  O   -0.948780
     8  Ca   1.400245
     9  O   -0.937916
 Sum of Mulliken charges=   1.00000

 Dipole moment (field-independent basis, Debye):
    X=     4.9715    Y=    -1.7053    Z=     8.6780  Tot=    10.1455
 Quadrupole moment (field-independent basis, Debye-Ang):
   XX=   -75.2111   YY=   -34.6811   ZZ=   -68.0788
   XY=     4.3899   XZ=   -29.7755   YZ=    -0.7790

 Normal termination of Gaussian 03 at Fri Jun 12 18:12:57 2015.
