 Gaussian 03, Revision E.01,
 Gaussian 03:  EM64T-G03RevE.01 11-Sep-2007

 ----------------------------------------------------
 # b3lyp/6-31+G(d,p) int=ultrafine pop=(ReadRadii,MK)
 ----------------------------------------------------

 --------------------------------------
 mol_17.24.4.pdbcc_plusQ.z58302.zip.xyz
 --------------------------------------
 Symbolic Z-matrix:
 Charge =  1 Multiplicity = 1

                         Standard orientation:
 ---------------------------------------------------------------------
 Center     Atomic     Atomic              Coordinates (Angstroms)
 Number     Number      Type              X           Y           Z
 ---------------------------------------------------------------------
    1          8             0        1.541270    1.157343   -0.068699
    2         15             0        2.974120    0.845763   -0.609779
    3          8             0        3.070910   -0.689057   -0.692449
    4         20             0        1.016350   -1.478217    0.068821
    5          8             0       -1.125540   -0.627607   -0.467649
    6          8             0       -1.222710   -1.263367    0.914921
    7          8             0       -0.275680   -0.537537    1.754751
    8         20             0       -3.409660    0.065233   -0.898339
    9         20             0       -0.632580    1.562753    0.710501
 ---------------------------------------------------------------------

 SCF Done:  E(RB+HF-LYP) =  -2750.06822728     A.U. after   12 cycles

 The electronic state is 1-A.
 Alpha  occ. eigenvalues -- -145.53415-145.52096-145.51672 -77.31115 -19.38932
 Alpha  occ. eigenvalues --  -19.30683 -19.29293 -19.29085 -19.28503 -15.60190
 Alpha  occ. eigenvalues --  -15.58932 -15.58652 -12.73429 -12.73407 -12.73290
 Alpha  occ. eigenvalues --  -12.72151 -12.72106 -12.72056 -12.71829 -12.71814
 Alpha  occ. eigenvalues --  -12.71754  -6.76704  -4.93137  -4.92911  -4.92486
 Alpha  occ. eigenvalues --   -1.97289  -1.96042  -1.95715  -1.27686  -1.25127
 Alpha  occ. eigenvalues --   -1.24849  -1.23729  -1.23553  -1.23396  -1.23112
 Alpha  occ. eigenvalues --   -1.22960  -1.22924  -1.21195  -1.15225  -1.09320
 Alpha  occ. eigenvalues --   -1.05926  -0.90379  -0.68488  -0.60114  -0.57982
 Alpha  occ. eigenvalues --   -0.57716  -0.57174  -0.54516  -0.53796  -0.46566
 Alpha  occ. eigenvalues --   -0.45998  -0.45314  -0.44567  -0.42287  -0.41290
 Alpha  occ. eigenvalues --   -0.37636  -0.26628
 Alpha virt. eigenvalues --   -0.20992  -0.19420  -0.18423  -0.17196  -0.14052
 Alpha virt. eigenvalues --   -0.13697  -0.12697  -0.10724  -0.10566  -0.10203
 Alpha virt. eigenvalues --   -0.09275  -0.08247  -0.07702  -0.07353  -0.06598

 Mulliken atomic charges:
              1
     1  O   -0.714325
     2  P    0.675436
     3  O   -0.646926
     4  Ca   1.362663
     5  O   -0.564670
     6  O   -0.083560
     7  O   -0.538439
     8  Ca   0.533251
     9  Ca   0.976570
 Sum of Mulliken charges=   1.00000

 Dipole moment (field-independent basis, Debye):
    X=    -2.2458    Y=    -1.5836    Z=    -1.0112  Tot=     2.9281
 Quadrupole moment (field-independent basis, Debye-Ang):
   XX=   -63.9652   YY=   -64.3110   ZZ=   -86.2131
   XY=    -1.0101   XZ=    10.6806   YZ=     7.8074

 Normal termination of Gaussian 03 at Fri Jun 12 17:57:11 2015.
