 Gaussian 03, Revision E.01,
 Gaussian 03:  EM64T-G03RevE.01 11-Sep-2007

 ----------------------------------------------------
 # b3lyp/6-31+G(d,p) int=ultrafine pop=(ReadRadii,MK)
 ----------------------------------------------------

 ---------------------------------------
 mol_17.23.34.pdbcc_plusQ.z58235.zip.xyz
 ---------------------------------------
 Symbolic Z-matrix:
 Charge =  1 Multiplicity = 1

                         Standard orientation:
 ---------------------------------------------------------------------
 Center     Atomic     Atomic              Coordinates (Angstroms)
 Number     Number      Type              X           Y           Z
 ---------------------------------------------------------------------
    1          8             0       -2.614050   -0.139939    0.000000
    2         15             0       -1.305430   -0.959999    0.000000
    3          8             0       -1.308911   -2.499089    0.000000
    4         20             0        1.147629   -2.645010    0.000000
    5         20             0        2.200490    1.118530    0.000000
    6          8             0        2.517520   -1.024140    0.000000
    7          8             0        0.000000    1.195741    0.000000
    8          8             0        0.309150    2.719521    0.000000
    9         20             0       -1.930530    2.145641    0.000000
 ---------------------------------------------------------------------

 SCF Done:  E(RB+HF-LYP) =  -2750.13357459     A.U. after   10 cycles

 The electronic state is 1-A'.
 Alpha  occ. eigenvalues -- -145.53144-145.49933-145.45493 -77.27358 -19.26250
 Alpha  occ. eigenvalues --  -19.26053 -19.23343 -19.23111 -19.11531 -15.59926
 Alpha  occ. eigenvalues --  -15.56806 -15.52380 -12.73198 -12.73089 -12.73033
 Alpha  occ. eigenvalues --  -12.70057 -12.70026 -12.69849 -12.65652 -12.65561
 Alpha  occ. eigenvalues --  -12.65430  -6.72956  -4.89347  -4.89170  -4.88802
 Alpha  occ. eigenvalues --   -1.96951  -1.93914  -1.89676  -1.24786  -1.24753
 Alpha  occ. eigenvalues --   -1.24036  -1.21733  -1.21674  -1.20577  -1.17707
 Alpha  occ. eigenvalues --   -1.17666  -1.16588  -1.11549  -1.07228  -1.06391
 Alpha  occ. eigenvalues --   -0.86991  -0.85661  -0.64353  -0.53133  -0.52575
 Alpha  occ. eigenvalues --   -0.50287  -0.46712  -0.46434  -0.44224  -0.43751
 Alpha  occ. eigenvalues --   -0.43578  -0.35545  -0.34746  -0.31901  -0.31217
 Alpha  occ. eigenvalues --   -0.29797  -0.29513
 Alpha virt. eigenvalues --   -0.20003  -0.17686  -0.17325  -0.15028  -0.11894
 Alpha virt. eigenvalues --   -0.10338  -0.10268  -0.09997  -0.09109  -0.08531
 Alpha virt. eigenvalues --   -0.08203  -0.06882  -0.06467  -0.05836  -0.05329

 Mulliken atomic charges:
              1
     1  O   -0.751188
     2  P    0.576763
     3  O   -0.581441
     4  Ca   1.411294
     5  Ca   1.422243
     6  O   -1.220910
     7  O   -0.638485
     8  O   -0.751958
     9  Ca   1.533681
 Sum of Mulliken charges=   1.00000

 Dipole moment (field-independent basis, Debye):
    X=    -0.7751    Y=     3.5938    Z=     0.0000  Tot=     3.6764
 Quadrupole moment (field-independent basis, Debye-Ang):
   XX=   -60.1663   YY=   -29.5432   ZZ=   -73.8946
   XY=   -27.7769   XZ=     0.0000   YZ=     0.0000

 Normal termination of Gaussian 03 at Fri Jun 12 17:52:45 2015.
