 Gaussian 03, Revision E.01,
 Gaussian 03:  EM64T-G03RevE.01 11-Sep-2007

 ----------------------------------------------------
 # b3lyp/6-31+G(d,p) int=ultrafine pop=(ReadRadii,MK)
 ----------------------------------------------------

 ---------------------------------------
 mol_17.27.18.pdbcc_plusQ.z58485.zip.xyz
 ---------------------------------------
 Symbolic Z-matrix:
 Charge =  1 Multiplicity = 1

                         Standard orientation:
 ---------------------------------------------------------------------
 Center     Atomic     Atomic              Coordinates (Angstroms)
 Number     Number      Type              X           Y           Z
 ---------------------------------------------------------------------
    1          8             0        2.602280    0.378779   -0.000041
    2          8             0       -0.657087    2.448748   -0.000071
    3         20             0        1.442553    2.350325   -0.000121
    4         15             0        2.842294   -1.143730    0.000139
    5          8             0        1.510577   -1.923205    0.000209
    6         20             0       -0.730452   -2.318012   -0.000231
    7          8             0       -2.262776   -0.926447   -0.786451
    8          8             0       -2.262466   -0.926447    0.786619
    9         20             0       -2.416033    1.204913    0.000139
 ---------------------------------------------------------------------

 SCF Done:  E(RB+HF-LYP) =  -2750.19710286     A.U. after    8 cycles

 The electronic state is 1-A.
 Alpha  occ. eigenvalues -- -145.50250-145.49522-145.43947 -77.30081 -19.27869
 Alpha  occ. eigenvalues --  -19.27705 -19.22483 -19.22478 -19.12217 -15.57113
 Alpha  occ. eigenvalues --  -15.56424 -15.50921 -12.70350 -12.70330 -12.70183
 Alpha  occ. eigenvalues --  -12.69677 -12.69631 -12.69461 -12.64146 -12.64143
 Alpha  occ. eigenvalues --  -12.63956  -6.75555  -4.92001  -4.91779  -4.91333
 Alpha  occ. eigenvalues --   -1.94318  -1.93665  -1.88350  -1.22290  -1.22015
 Alpha  occ. eigenvalues --   -1.21917  -1.21521  -1.21392  -1.20572  -1.16523
 Alpha  occ. eigenvalues --   -1.16138  -1.15618  -1.13712  -1.08482  -1.04681
 Alpha  occ. eigenvalues --   -0.86297  -0.86243  -0.67762  -0.57325  -0.52569
 Alpha  occ. eigenvalues --   -0.52498  -0.45801  -0.45759  -0.44707  -0.43916
 Alpha  occ. eigenvalues --   -0.42965  -0.40393  -0.34041  -0.32615  -0.30973
 Alpha  occ. eigenvalues --   -0.30566  -0.30366
 Alpha virt. eigenvalues --   -0.19723  -0.18400  -0.17451  -0.14060  -0.12039
 Alpha virt. eigenvalues --   -0.10578  -0.10166  -0.08901  -0.08320  -0.08286
 Alpha virt. eigenvalues --   -0.07014  -0.06735  -0.06064  -0.06001  -0.05477

 Mulliken atomic charges:
              1
     1  O   -0.703788
     2  O   -1.246963
     3  Ca   1.458813
     4  P    0.654179
     5  O   -0.701807
     6  Ca   1.497897
     7  O   -0.676260
     8  O   -0.676257
     9  Ca   1.394187
 Sum of Mulliken charges=   1.00000

 Dipole moment (field-independent basis, Debye):
    X=     1.9844    Y=     0.5256    Z=    -0.0017  Tot=     2.0528
 Quadrupole moment (field-independent basis, Debye-Ang):
   XX=   -55.9367   YY=   -34.8328   ZZ=   -77.5237
   XY=    11.2703   XZ=    -0.0023   YZ=     0.0062

 Normal termination of Gaussian 03 at Fri Jun 12 18:03:17 2015.
