 Gaussian 03, Revision E.01,
 Gaussian 03:  EM64T-G03RevE.01 11-Sep-2007

 ----------------------------------------------------
 # b3lyp/6-31+G(d,p) int=ultrafine pop=(ReadRadii,MK)
 ----------------------------------------------------

 -------------------------------------
 mol_17.23.8.pdbc_plusQ.z58263.zip.xyz
 -------------------------------------
 Symbolic Z-matrix:
 Charge =  1 Multiplicity = 1

                         Standard orientation:
 ---------------------------------------------------------------------
 Center     Atomic     Atomic              Coordinates (Angstroms)
 Number     Number      Type              X           Y           Z
 ---------------------------------------------------------------------
    1          8             0        1.613239    1.039993    0.006291
    2          8             0       -2.874902    1.416055   -0.002549
    3         20             0       -0.726112    1.519099    0.004661
    4         20             0       -3.075849   -0.693925   -0.005479
    5         15             0        3.170759    0.866975   -0.005979
    6          8             0        3.411141   -0.653194   -0.007979
    7          8             0       -0.819758   -0.879161   -0.776209
    8          8             0       -0.824098   -0.881061    0.779321
    9         20             0        1.221643   -1.492458    0.005751
 ---------------------------------------------------------------------

 SCF Done:  E(RB+HF-LYP) =  -2750.19922675     A.U. after    8 cycles

 The electronic state is 1-A.
 Alpha  occ. eigenvalues -- -145.53301-145.48098-145.46505 -77.31647 -19.29956
 Alpha  occ. eigenvalues --  -19.29136 -19.27656 -19.27649 -19.10311 -15.60146
 Alpha  occ. eigenvalues --  -15.54935 -15.53364 -12.73382 -12.73377 -12.73212
 Alpha  occ. eigenvalues --  -12.68154 -12.68118 -12.68039 -12.66618 -12.66582
 Alpha  occ. eigenvalues --  -12.66413  -6.77271  -4.93704  -4.93471  -4.93054
 Alpha  occ. eigenvalues --   -1.97331  -1.92133  -1.90673  -1.25313  -1.25143
 Alpha  occ. eigenvalues --   -1.25003  -1.20356  -1.19788  -1.19238  -1.18534
 Alpha  occ. eigenvalues --   -1.18455  -1.17872  -1.15551  -1.10912  -1.09761
 Alpha  occ. eigenvalues --   -0.91288  -0.84520  -0.68929  -0.57895  -0.55270
 Alpha  occ. eigenvalues --   -0.54480  -0.51223  -0.50447  -0.49463  -0.46898
 Alpha  occ. eigenvalues --   -0.45451  -0.42701  -0.38846  -0.36713  -0.30147
 Alpha  occ. eigenvalues --   -0.28563  -0.28510
 Alpha virt. eigenvalues --   -0.21598  -0.19564  -0.17909  -0.15031  -0.15008
 Alpha virt. eigenvalues --   -0.11255  -0.10530  -0.09853  -0.09286  -0.08794
 Alpha virt. eigenvalues --   -0.08675  -0.08136  -0.07318  -0.06844  -0.06403

 Mulliken atomic charges:
              1
     1  O   -0.742993
     2  O   -1.123869
     3  Ca   1.356286
     4  Ca   1.362958
     5  P    0.680363
     6  O   -0.647382
     7  O   -0.694290
     8  O   -0.694347
     9  Ca   1.503275
 Sum of Mulliken charges=   1.00000

 Dipole moment (field-independent basis, Debye):
    X=     0.3545    Y=    -7.6375    Z=     0.0319  Tot=     7.6457
 Quadrupole moment (field-independent basis, Debye-Ang):
   XX=   -63.4201   YY=   -57.0575   ZZ=   -77.2562
   XY=    23.1645   XZ=     0.1456   YZ=     0.0052

 Normal termination of Gaussian 03 at Fri Jun 12 17:54:26 2015.
