 Gaussian 03, Revision E.01,
 Gaussian 03:  EM64T-G03RevE.01 11-Sep-2007

 ----------------------------------------------------
 # b3lyp/6-31+G(d,p) int=ultrafine pop=(ReadRadii,MK)
 ----------------------------------------------------

 ----------------------------------------
 mol_16.5.1.pdbc_plusQ.out.z51626.zip.xyz
 ----------------------------------------
 Symbolic Z-matrix:
 Charge =  1 Multiplicity = 1

                         Standard orientation:
 ---------------------------------------------------------------------
 Center     Atomic     Atomic              Coordinates (Angstroms)
 Number     Number      Type              X           Y           Z
 ---------------------------------------------------------------------
    1          8             0       -1.442215   -1.273727   -0.000061
    2          8             0       -1.442656    1.273243   -0.000031
    3         15             0       -2.319991   -0.000394    0.000009
    4         20             0        0.761953   -1.857975   -0.000001
    5          8             0        1.713319    0.000302    0.786269
    6         20             0        0.761226    1.858215   -0.000011
    7          8             0        1.713589    0.000322   -0.786161
 ---------------------------------------------------------------------

 SCF Done:  E(RB+HF-LYP) =  -1997.33372469     A.U. after    6 cycles

 The electronic state is 1-A.
 Alpha  occ. eigenvalues -- -145.53247-145.53246 -77.30162 -19.27955 -19.27950
 Alpha  occ. eigenvalues --  -19.25596 -19.25581 -15.60094 -15.60093 -12.73309
 Alpha  occ. eigenvalues --  -12.73308 -12.73291 -12.73290 -12.73209 -12.73206
 Alpha  occ. eigenvalues --   -6.75643  -4.92083  -4.91868  -4.91423  -1.97237
 Alpha  occ. eigenvalues --   -1.97210  -1.25765  -1.24806  -1.24792  -1.24726
 Alpha  occ. eigenvalues --   -1.24726  -1.24303  -1.13925  -1.08555  -1.08250
 Alpha  occ. eigenvalues --   -0.89522  -0.67705  -0.57282  -0.52823  -0.52601
 Alpha  occ. eigenvalues --   -0.48993  -0.47945  -0.46120  -0.45762  -0.43901
 Alpha  occ. eigenvalues --   -0.40700  -0.37191  -0.34167
 Alpha virt. eigenvalues --   -0.20457  -0.19852  -0.19631  -0.14482  -0.11368
 Alpha virt. eigenvalues --   -0.11280  -0.10319  -0.09667  -0.09045  -0.07375
 Alpha virt. eigenvalues --   -0.07215  -0.06432  -0.05962  -0.05215  -0.04857

 Mulliken atomic charges:
              1
     1  O   -0.709775
     2  O   -0.709850
     3  P    0.668718
     4  Ca   1.544012
     5  O   -0.668691
     6  Ca   1.544003
     7  O   -0.668416
 Sum of Mulliken charges=   1.00000

 Dipole moment (field-independent basis, Debye):
    X=     3.1408    Y=    -0.0003    Z=    -0.0013  Tot=     3.1408
 Quadrupole moment (field-independent basis, Debye-Ang):
   XX=   -66.5079   YY=    -8.8857   ZZ=   -58.2534
   XY=    -0.0108   XZ=    -0.0022   YZ=    -0.0003

 Normal termination of Gaussian 03 at Fri Jun 12 17:49:24 2015.
