 Gaussian 03, Revision E.01,
 Gaussian 03:  EM64T-G03RevE.01 11-Sep-2007

 ----------------------------------------------------
 # b3lyp/6-31+G(d,p) int=ultrafine pop=(ReadRadii,MK)
 ----------------------------------------------------

 --------------------------------------
 mol_17.24.7.pdbcc_plusQ.z58314.zip.xyz
 --------------------------------------
 Symbolic Z-matrix:
 Charge =  1 Multiplicity = 1

                         Standard orientation:
 ---------------------------------------------------------------------
 Center     Atomic     Atomic              Coordinates (Angstroms)
 Number     Number      Type              X           Y           Z
 ---------------------------------------------------------------------
    1          8             0        2.707212   -1.091636    0.785020
    2          8             0        2.707362   -1.092076   -0.784880
    3          8             0       -1.730367   -1.513084    0.001190
    4         15             0       -3.191608   -1.030407   -0.000170
    5          8             0       -3.214111    0.521773   -0.000660
    6         20             0        0.591743   -1.308530   -0.000270
    7          8             0        0.562948    1.107010   -0.000100
    8         20             0        2.816449    0.989454   -0.000020
    9         20             0       -1.427703    1.919086    0.000190
 ---------------------------------------------------------------------

 SCF Done:  E(RB+HF-LYP) =  -2750.20952499     A.U. after    8 cycles

 The electronic state is 1-A.
 Alpha  occ. eigenvalues -- -145.53415-145.48025-145.44941 -77.29973 -19.28011
 Alpha  occ. eigenvalues --  -19.27324 -19.19950 -19.19945 -19.17943 -15.60317
 Alpha  occ. eigenvalues --  -15.54893 -15.51821 -12.73572 -12.73524 -12.73355
 Alpha  occ. eigenvalues --  -12.68102 -12.68075 -12.68003 -12.65064 -12.65027
 Alpha  occ. eigenvalues --  -12.64896  -6.75488  -4.91931  -4.91706  -4.91268
 Alpha  occ. eigenvalues --   -1.97538  -1.92202  -1.89208  -1.25392  -1.25267
 Alpha  occ. eigenvalues --   -1.24408  -1.20516  -1.19800  -1.19402  -1.17186
 Alpha  occ. eigenvalues --   -1.17053  -1.16734  -1.13710  -1.08211  -1.02462
 Alpha  occ. eigenvalues --   -0.92502  -0.83774  -0.67315  -0.56759  -0.52764
 Alpha  occ. eigenvalues --   -0.52527  -0.45433  -0.43547  -0.43422  -0.41987
 Alpha  occ. eigenvalues --   -0.41143  -0.40689  -0.38026  -0.37359  -0.36454
 Alpha  occ. eigenvalues --   -0.30546  -0.28929
 Alpha virt. eigenvalues --   -0.21377  -0.19705  -0.18082  -0.13492  -0.13460
 Alpha virt. eigenvalues --   -0.11741  -0.10914  -0.10448  -0.08630  -0.08285
 Alpha virt. eigenvalues --   -0.07174  -0.06857  -0.06440  -0.06172  -0.05663

 Mulliken atomic charges:
              1
     1  O   -0.651488
     2  O   -0.651546
     3  O   -0.675955
     4  P    0.667109
     5  O   -0.719387
     6  Ca   1.408510
     7  O   -1.349988
     8  Ca   1.443129
     9  Ca   1.529615
 Sum of Mulliken charges=   1.00000

 Dipole moment (field-independent basis, Debye):
    X=    -1.2472    Y=    12.3415    Z=    -0.0013  Tot=    12.4044
 Quadrupole moment (field-independent basis, Debye-Ang):
   XX=   -63.2181   YY=   -45.9581   ZZ=   -77.2230
   XY=    15.7225   XZ=    -0.0065   YZ=     0.0134

 Normal termination of Gaussian 03 at Fri Jun 12 17:56:37 2015.
