 Gaussian 03, Revision E.01,
 Gaussian 03:  EM64T-G03RevE.01 11-Sep-2007

 ----------------------------------------------------
 # b3lyp/6-31+G(d,p) int=ultrafine pop=(ReadRadii,MK)
 ----------------------------------------------------

 ---------------------------------------
 mol_17.28.43.pdbcc_plusQ.z58567.zip.xyz
 ---------------------------------------
 Symbolic Z-matrix:
 Charge =  1 Multiplicity = 1

                         Standard orientation:
 ---------------------------------------------------------------------
 Center     Atomic     Atomic              Coordinates (Angstroms)
 Number     Number      Type              X           Y           Z
 ---------------------------------------------------------------------
    1          8             0        0.591021    0.000103   -1.656579
    2          8             0       -1.237009   -1.284770   -0.441799
    3         15             0       -1.064279    0.000061   -1.531379
    4         20             0       -1.627499   -0.000103    1.389351
    5         20             0        1.054363   -1.671623   -0.137909
    6          8             0       -1.237058    1.284780   -0.441649
    7          8             0        0.607801   -0.000097    1.522391
    8         20             0        1.054279    1.671677   -0.137739
    9          8             0        2.067911   -0.000006    1.104721
 ---------------------------------------------------------------------

 SCF Done:  E(RB+HF-LYP) =  -2750.24881786     A.U. after    7 cycles

 The electronic state is 1-A.
 Alpha  occ. eigenvalues -- -145.52397-145.50179-145.50174 -77.25151 -19.25907
 Alpha  occ. eigenvalues --  -19.25456 -19.21785 -19.21785 -19.21334 -15.59155
 Alpha  occ. eigenvalues --  -15.56977 -15.56974 -12.72343 -12.72339 -12.72313
 Alpha  occ. eigenvalues --  -12.70185 -12.70184 -12.70176 -12.70176 -12.70097
 Alpha  occ. eigenvalues --  -12.70096  -6.70240  -4.86594  -4.86586  -4.86025
 Alpha  occ. eigenvalues --   -1.96332  -1.94229  -1.94163  -1.24351  -1.23886
 Alpha  occ. eigenvalues --   -1.23790  -1.22782  -1.22075  -1.21716  -1.21641
 Alpha  occ. eigenvalues --   -1.21521  -1.21223  -1.10024  -1.07335  -1.00856
 Alpha  occ. eigenvalues --   -1.00738  -0.89072  -0.63093  -0.51336  -0.51083
 Alpha  occ. eigenvalues --   -0.50981  -0.49232  -0.48441  -0.46042  -0.43797
 Alpha  occ. eigenvalues --   -0.43560  -0.38833  -0.38643  -0.38612  -0.35294
 Alpha  occ. eigenvalues --   -0.33985  -0.31696
 Alpha virt. eigenvalues --   -0.20306  -0.18388  -0.17631  -0.12785  -0.12605
 Alpha virt. eigenvalues --   -0.10904  -0.09918  -0.09095  -0.08255  -0.07952
 Alpha virt. eigenvalues --   -0.07350  -0.06563  -0.06018  -0.05818  -0.04923

 Mulliken atomic charges:
              1
     1  O   -1.034897
     2  O   -1.043930
     3  P    1.083342
     4  Ca   1.483267
     5  Ca   1.462593
     6  O   -1.043938
     7  O   -0.725545
     8  Ca   1.462585
     9  O   -0.643478
 Sum of Mulliken charges=   1.00000

 Dipole moment (field-independent basis, Debye):
    X=     0.9284    Y=    -0.0004    Z=     6.2061  Tot=     6.2751
 Quadrupole moment (field-independent basis, Debye-Ang):
   XX=   -63.6802   YY=   -44.2190   ZZ=   -80.5701
   XY=     0.0009   XZ=   -28.3296   YZ=     0.0014

 Normal termination of Gaussian 03 at Fri Jun 12 18:10:04 2015.
