 Gaussian 03, Revision E.01,
 Gaussian 03:  EM64T-G03RevE.01 11-Sep-2007

 ----------------------------------------------------
 # b3lyp/6-31+G(d,p) int=ultrafine pop=(ReadRadii,MK)
 ----------------------------------------------------

 ---------------------------------------
 mol_17.24.55.pdbcc_plusQ.z58308.zip.xyz
 ---------------------------------------
 Symbolic Z-matrix:
 Charge =  1 Multiplicity = 1

                         Standard orientation:
 ---------------------------------------------------------------------
 Center     Atomic     Atomic              Coordinates (Angstroms)
 Number     Number      Type              X           Y           Z
 ---------------------------------------------------------------------
    1          8             0       -2.675861    0.692121   -1.246320
    2         15             0       -1.732861    0.736471    0.003120
    3          8             0       -2.675121    0.694901    1.251440
    4          8             0       -0.493391    1.650772   -0.004570
    5         20             0        1.039849   -0.048898   -0.008030
    6          8             0        3.223480   -0.332488    0.014050
    7         20             0        5.278940   -0.174838   -0.000440
    8         20             0       -3.519930   -1.078129   -0.000490
    9          8             0       -1.127140   -0.831529    0.001950
 ---------------------------------------------------------------------

 SCF Done:  E(RB+HF-LYP) =  -2750.24148945     A.U. after   11 cycles

 The electronic state is 1-A.
 Alpha  occ. eigenvalues -- -145.57760-145.50601-145.42412 -77.24146 -19.16321
 Alpha  occ. eigenvalues --  -19.16176 -19.16152 -19.14109 -19.14063 -15.64523
 Alpha  occ. eigenvalues --  -15.57296 -15.49347 -12.77742 -12.77741 -12.77608
 Alpha  occ. eigenvalues --  -12.70492 -12.70481 -12.70478 -12.62630 -12.62549
 Alpha  occ. eigenvalues --  -12.62368  -6.68696  -4.85138  -4.85004  -4.84941
 Alpha  occ. eigenvalues --   -2.01395  -1.94240  -1.86805  -1.28907  -1.28904
 Alpha  occ. eigenvalues --   -1.28012  -1.22211  -1.21442  -1.21405  -1.14925
 Alpha  occ. eigenvalues --   -1.14629  -1.14377  -1.05320  -0.98034  -0.95355
 Alpha  occ. eigenvalues --   -0.95317  -0.90159  -0.55278  -0.46961  -0.45648
 Alpha  occ. eigenvalues --   -0.44823  -0.39815  -0.37093  -0.36910  -0.36462
 Alpha  occ. eigenvalues --   -0.35368  -0.34433  -0.34285  -0.34153  -0.32119
 Alpha  occ. eigenvalues --   -0.30570  -0.28475
 Alpha virt. eigenvalues --   -0.25082  -0.18033  -0.15148  -0.15140  -0.13895
 Alpha virt. eigenvalues --   -0.10401  -0.08780  -0.08748  -0.07743  -0.06507
 Alpha virt. eigenvalues --   -0.06168  -0.05577  -0.05323  -0.05281  -0.04882

 Mulliken atomic charges:
              1
     1  O   -0.912797
     2  P    1.749653
     3  O   -0.909532
     4  O   -0.868831
     5  Ca   1.360018
     6  O   -1.165310
     7  Ca   1.448520
     8  Ca   1.425685
     9  O   -1.127406
 Sum of Mulliken charges=   1.00000

 Dipole moment (field-independent basis, Debye):
    X=    18.1097    Y=   -10.8604    Z=    -0.1236  Tot=    21.1170
 Quadrupole moment (field-independent basis, Debye-Ang):
   XX=   124.5532   YY=   -77.3578   ZZ=   -85.8501
   XY=    35.1628   XZ=    -0.3336   YZ=     0.0664

 Normal termination of Gaussian 03 at Fri Jun 12 17:56:53 2015.
