 Gaussian 03, Revision E.01,
 Gaussian 03:  EM64T-G03RevE.01 11-Sep-2007

 ----------------------------------------------------
 # b3lyp/6-31+G(d,p) int=ultrafine pop=(ReadRadii,MK)
 ----------------------------------------------------

 ----------------------------------------
 mol_16.5.3.pdbc_plusQ.out.z51628.zip.xyz
 ----------------------------------------
 Symbolic Z-matrix:
 Charge =  1 Multiplicity = 1

                         Standard orientation:
 ---------------------------------------------------------------------
 Center     Atomic     Atomic              Coordinates (Angstroms)
 Number     Number      Type              X           Y           Z
 ---------------------------------------------------------------------
    1          8             0        1.349108    1.316442    0.001689
    2          8             0        0.251700   -0.980879   -0.002631
    3         20             0        2.442450   -0.607677   -0.000001
    4          8             0       -0.981011    0.812390    1.250459
    5         15             0       -0.067231    0.679091    0.000149
    6         20             0       -2.247960   -0.687701   -0.000121
    7          8             0       -0.979961    0.817200   -1.249491
 ---------------------------------------------------------------------

 SCF Done:  E(RB+HF-LYP) =  -1997.39686838     A.U. after    8 cycles

 The electronic state is 1-A.
 Alpha  occ. eigenvalues -- -145.57549-145.56056 -77.29920 -19.22738 -19.22263
 Alpha  occ. eigenvalues --  -19.19558 -19.19551 -15.64334 -15.62737 -12.77577
 Alpha  occ. eigenvalues --  -12.77483 -12.77476 -12.75948 -12.75920 -12.75918
 Alpha  occ. eigenvalues --   -6.74492  -4.90946  -4.90805  -4.90711  -2.01287
 Alpha  occ. eigenvalues --   -1.99561  -1.28885  -1.28836  -1.28375  -1.27389
 Alpha  occ. eigenvalues --   -1.26793  -1.26696  -1.11448  -1.04130  -1.01269
 Alpha  occ. eigenvalues --   -1.01118  -0.61217  -0.53198  -0.51407  -0.50529
 Alpha  occ. eigenvalues --   -0.45805  -0.42794  -0.42571  -0.41455  -0.40261
 Alpha  occ. eigenvalues --   -0.38008  -0.36321  -0.34172
 Alpha virt. eigenvalues --   -0.23654  -0.21649  -0.14051  -0.13680  -0.12199
 Alpha virt. eigenvalues --   -0.11998  -0.11177  -0.08334  -0.07556  -0.06420
 Alpha virt. eigenvalues --   -0.05283  -0.05144  -0.04531  -0.04381  -0.04183

 Mulliken atomic charges:
              1
     1  O   -0.864303
     2  O   -1.127881
     3  Ca   1.525329
     4  O   -0.884142
     5  P    1.786012
     6  Ca   1.448634
     7  O   -0.883648
 Sum of Mulliken charges=   1.00000

 Dipole moment (field-independent basis, Debye):
    X=     2.7830    Y=   -12.3608    Z=    -0.0019  Tot=    12.6702
 Quadrupole moment (field-independent basis, Debye-Ang):
   XX=    21.8965   YY=   -59.4463   ZZ=   -66.1570
   XY=     1.3202   XZ=     0.0085   YZ=    -0.0016

 Normal termination of Gaussian 03 at Fri Jun 12 17:49:44 2015.
