 Gaussian 03, Revision E.01,
 Gaussian 03:  EM64T-G03RevE.01 11-Sep-2007

 ----------------------------------------------------
 # b3lyp/6-31+G(d,p) int=ultrafine pop=(ReadRadii,MK)
 ----------------------------------------------------

 -----------------------------------------
 mol_16.5.0.pdbc_plusQc.out.z51615.zip.xyz
 -----------------------------------------
 Symbolic Z-matrix:
 Charge =  1 Multiplicity = 1

                         Standard orientation:
 ---------------------------------------------------------------------
 Center     Atomic     Atomic              Coordinates (Angstroms)
 Number     Number      Type              X           Y           Z
 ---------------------------------------------------------------------
    1          8             0        1.442884    1.273034   -0.000521
    2          8             0        1.441673   -1.274106   -0.000531
    3         15             0        2.319828   -0.000973    0.000409
    4         20             0       -0.762445   -1.857964   -0.000091
    5         20             0       -0.760759    1.858536   -0.000041
    6          8             0       -1.713462    0.000873   -0.785831
    7          8             0       -1.712762    0.000593    0.786449
 ---------------------------------------------------------------------

 SCF Done:  E(RB+HF-LYP) =  -1997.33372464     A.U. after    6 cycles

 The electronic state is 1-A.
 Alpha  occ. eigenvalues -- -145.53245-145.53244 -77.30162 -19.27955 -19.27948
 Alpha  occ. eigenvalues --  -19.25589 -19.25583 -15.60092 -15.60091 -12.73307
 Alpha  occ. eigenvalues --  -12.73305 -12.73289 -12.73287 -12.73207 -12.73204
 Alpha  occ. eigenvalues --   -6.75643  -4.92083  -4.91868  -4.91423  -1.97235
 Alpha  occ. eigenvalues --   -1.97208  -1.25764  -1.24805  -1.24791  -1.24724
 Alpha  occ. eigenvalues --   -1.24724  -1.24301  -1.13921  -1.08553  -1.08252
 Alpha  occ. eigenvalues --   -0.89518  -0.67705  -0.57280  -0.52821  -0.52598
 Alpha  occ. eigenvalues --   -0.48994  -0.47946  -0.46120  -0.45761  -0.43900
 Alpha  occ. eigenvalues --   -0.40699  -0.37189  -0.34163
 Alpha virt. eigenvalues --   -0.20456  -0.19853  -0.19631  -0.14478  -0.11367
 Alpha virt. eigenvalues --   -0.11280  -0.10319  -0.09666  -0.09039  -0.07375
 Alpha virt. eigenvalues --   -0.07215  -0.06431  -0.05962  -0.05215  -0.04857

 Mulliken atomic charges:
              1
     1  O   -0.709893
     2  O   -0.709755
     3  P    0.668757
     4  Ca   1.544022
     5  Ca   1.544006
     6  O   -0.668545
     7  O   -0.668591
 Sum of Mulliken charges=   1.00000

 Dipole moment (field-independent basis, Debye):
    X=    -3.1425    Y=    -0.0005    Z=     0.0002  Tot=     3.1425
 Quadrupole moment (field-independent basis, Debye-Ang):
   XX=   -66.5003   YY=    -8.8783   ZZ=   -58.2532
   XY=     0.0245   XZ=     0.0046   YZ=     0.0012

 Normal termination of Gaussian 03 at Fri Jun 12 17:49:02 2015.
