 Gaussian 03, Revision E.01,
 Gaussian 03:  EM64T-G03RevE.01 11-Sep-2007

 ----------------------------------------------------
 # b3lyp/6-31+G(d,p) int=ultrafine pop=(ReadRadii,MK)
 ----------------------------------------------------

 ----------------------------------------
 mol_17.28.54.pdbccc_plusQ.z58579.zip.xyz
 ----------------------------------------
 Symbolic Z-matrix:
 Charge =  1 Multiplicity = 1

                         Standard orientation:
 ---------------------------------------------------------------------
 Center     Atomic     Atomic              Coordinates (Angstroms)
 Number     Number      Type              X           Y           Z
 ---------------------------------------------------------------------
    1          8             0       -3.131770   -0.534509    0.771360
    2          8             0       -3.138940   -0.536029   -0.761540
    3         15             0       -2.849489    1.020321    0.001940
    4          8             0       -1.296519    1.092960   -0.005810
    5         20             0       -0.996831   -1.481760   -0.003820
    6         20             0        1.080791    1.427479   -0.001720
    7         20             0        3.349080   -0.851203    0.002230
    8          8             0        1.093850   -0.947721   -0.001200
    9          8             0        3.233571    1.275907    0.001830
 ---------------------------------------------------------------------

 SCF Done:  E(RB+HF-LYP) =  -2750.13248253     A.U. after    9 cycles

 The electronic state is 1-A.
 Alpha  occ. eigenvalues -- -145.52147-145.47054-145.45744 -77.33858 -19.37001
 Alpha  occ. eigenvalues --  -19.36987 -19.29670 -19.17037 -19.10771 -15.59008
 Alpha  occ. eigenvalues --  -15.53953 -15.52658 -12.72253 -12.72239 -12.72053
 Alpha  occ. eigenvalues --  -12.67195 -12.67110 -12.67032 -12.65927 -12.65836
 Alpha  occ. eigenvalues --  -12.65706  -6.79173  -4.95531  -4.95447  -4.94936
 Alpha  occ. eigenvalues --   -1.96221  -1.91248  -1.90053  -1.28429  -1.24007
 Alpha  occ. eigenvalues --   -1.23838  -1.22361  -1.19121  -1.18895  -1.18220
 Alpha  occ. eigenvalues --   -1.18089  -1.17446  -1.17177  -1.12877  -1.01036
 Alpha  occ. eigenvalues --   -0.91706  -0.84708  -0.73767  -0.61687  -0.60230
 Alpha  occ. eigenvalues --   -0.58887  -0.54725  -0.49821  -0.47610  -0.44041
 Alpha  occ. eigenvalues --   -0.43353  -0.37877  -0.36788  -0.35760  -0.30232
 Alpha  occ. eigenvalues --   -0.28787  -0.28457
 Alpha virt. eigenvalues --   -0.20340  -0.19644  -0.17746  -0.17264  -0.15283
 Alpha virt. eigenvalues --   -0.12026  -0.11234  -0.10210  -0.09967  -0.09649
 Alpha virt. eigenvalues --   -0.09350  -0.08174  -0.07379  -0.07021  -0.06560

 Mulliken atomic charges:
              1
     1  O   -0.374821
     2  O   -0.374764
     3  P    0.841368
     4  O   -0.794690
     5  Ca   1.478736
     6  Ca   1.337047
     7  Ca   1.346334
     8  O   -1.319308
     9  O   -1.139901
 Sum of Mulliken charges=   1.00000

 Dipole moment (field-independent basis, Debye):
    X=     0.4571    Y=    -7.5342    Z=    -0.0192  Tot=     7.5481
 Quadrupole moment (field-independent basis, Debye-Ang):
   XX=   -65.3576   YY=   -56.0159   ZZ=   -75.5969
   XY=   -26.3142   XZ=     0.0500   YZ=     0.0188

 Normal termination of Gaussian 03 at Fri Jun 12 18:10:34 2015.
