 Gaussian 03, Revision E.01,
 Gaussian 03:  EM64T-G03RevE.01 11-Sep-2007

 ----------------------------------------------------
 # b3lyp/6-31+G(d,p) int=ultrafine pop=(ReadRadii,MK)
 ----------------------------------------------------

 ----------------------------------------
 mol_17.26.9.pdbcccc_plusQ.z58475.zip.xyz
 ----------------------------------------
 Symbolic Z-matrix:
 Charge =  1 Multiplicity = 1

                         Standard orientation:
 ---------------------------------------------------------------------
 Center     Atomic     Atomic              Coordinates (Angstroms)
 Number     Number      Type              X           Y           Z
 ---------------------------------------------------------------------
    1          8             0       -2.081210    0.113715    0.027399
    2          8             0       -1.604157   -0.865638   -1.047261
    3         15             0        0.051652   -1.069381   -1.490751
    4          8             0        0.732848   -1.600966   -0.077341
    5         20             0        2.166251    0.173864    0.265639
    6          8             0        0.654133    0.468845   -1.503031
    7         20             0       -0.769867   -0.917725    1.577499
    8          8             0        0.480847    0.993346    1.443749
    9         20             0       -0.708107    1.902175   -0.262481
 ---------------------------------------------------------------------

 SCF Done:  E(RB+HF-LYP) =  -2750.21031963     A.U. after    9 cycles

 The electronic state is 1-A.
 Alpha  occ. eigenvalues -- -145.50888-145.50034-145.49912 -77.26561 -19.28873
 Alpha  occ. eigenvalues --  -19.25495 -19.23022 -19.22679 -19.16479 -15.57722
 Alpha  occ. eigenvalues --  -15.56854 -15.56715 -12.70929 -12.70894 -12.70847
 Alpha  occ. eigenvalues --  -12.70050 -12.70031 -12.69996 -12.69925 -12.69879
 Alpha  occ. eigenvalues --  -12.69865  -6.71693  -4.88113  -4.87982  -4.87462
 Alpha  occ. eigenvalues --   -1.95023  -1.94126  -1.93944  -1.23113  -1.22769
 Alpha  occ. eigenvalues --   -1.22413  -1.22269  -1.21656  -1.21533  -1.21321
 Alpha  occ. eigenvalues --   -1.21262  -1.20929  -1.13378  -1.06957  -1.02300
 Alpha  occ. eigenvalues --   -0.93475  -0.91447  -0.65051  -0.55691  -0.52579
 Alpha  occ. eigenvalues --   -0.51445  -0.48236  -0.47018  -0.44145  -0.42157
 Alpha  occ. eigenvalues --   -0.39476  -0.38411  -0.36796  -0.36154  -0.35847
 Alpha  occ. eigenvalues --   -0.35034  -0.32620
 Alpha virt. eigenvalues --   -0.20665  -0.18371  -0.17697  -0.13936  -0.12894
 Alpha virt. eigenvalues --   -0.11292  -0.10803  -0.09509  -0.09142  -0.08154
 Alpha virt. eigenvalues --   -0.07390  -0.06423  -0.06162  -0.05857  -0.04927

 Mulliken atomic charges:
              1
     1  O   -0.644622
     2  O   -0.458163
     3  P    1.058127
     4  O   -1.042984
     5  Ca   1.418433
     6  O   -1.044699
     7  Ca   1.473363
     8  O   -1.252782
     9  Ca   1.493328
 Sum of Mulliken charges=   1.00000

 Dipole moment (field-independent basis, Debye):
    X=     5.1014    Y=     5.0705    Z=     6.4618  Tot=     9.6690
 Quadrupole moment (field-independent basis, Debye-Ang):
   XX=   -52.5235   YY=   -57.1436   ZZ=   -76.0256
   XY=    -3.6708   XZ=    -7.0580   YZ=   -22.2228

 Normal termination of Gaussian 03 at Fri Jun 12 18:02:55 2015.
