 Gaussian 03, Revision E.01,
 Gaussian 03:  EM64T-G03RevE.01 11-Sep-2007

 ----------------------------------------------------
 # b3lyp/6-31+G(d,p) int=ultrafine pop=(ReadRadii,MK)
 ----------------------------------------------------

 -------------------------------------
 mol_17.28.11.pdb_plusQ.z58533.zip.xyz
 -------------------------------------
 Symbolic Z-matrix:
 Charge =  1 Multiplicity = 1

                         Standard orientation:
 ---------------------------------------------------------------------
 Center     Atomic     Atomic              Coordinates (Angstroms)
 Number     Number      Type              X           Y           Z
 ---------------------------------------------------------------------
    1          8             0       -2.543389    0.000083    1.244679
    2          8             0       -0.757060   -1.250168   -0.033981
    3         15             0       -0.972999    0.000262    1.110729
    4         20             0       -2.533989   -0.000327   -1.021801
    5          8             0       -0.757468    1.249992   -0.034881
    6         20             0        1.440922    1.800721   -0.043891
    7          8             0        2.633351    0.000180    0.531169
    8          8             0        2.378231    0.000110   -1.015841
    9         20             0        1.441350   -1.800669   -0.043811
 ---------------------------------------------------------------------

 SCF Done:  E(RB+HF-LYP) =  -2750.19820978     A.U. after    7 cycles

 The electronic state is 1-A.
 Alpha  occ. eigenvalues -- -145.52889-145.49500-145.49498 -77.24301 -19.22795
 Alpha  occ. eigenvalues --  -19.22507 -19.21324 -19.21324 -19.19023 -15.59681
 Alpha  occ. eigenvalues --  -15.56362 -15.56360 -12.72864 -12.72860 -12.72847
 Alpha  occ. eigenvalues --  -12.69588 -12.69587 -12.69563 -12.69562 -12.69452
 Alpha  occ. eigenvalues --  -12.69450  -6.69589  -4.85970  -4.85894  -4.85453
 Alpha  occ. eigenvalues --   -1.96716  -1.93608  -1.93574  -1.24678  -1.23981
 Alpha  occ. eigenvalues --   -1.23941  -1.22274  -1.21279  -1.21227  -1.21051
 Alpha  occ. eigenvalues --   -1.21026  -1.20593  -1.06711  -1.05361  -0.99867
 Alpha  occ. eigenvalues --   -0.99593  -0.86449  -0.61782  -0.49594  -0.49233
 Alpha  occ. eigenvalues --   -0.48394  -0.46091  -0.44983  -0.43562  -0.42564
 Alpha  occ. eigenvalues --   -0.41977  -0.37836  -0.37836  -0.34589  -0.33872
 Alpha  occ. eigenvalues --   -0.32212  -0.31070
 Alpha virt. eigenvalues --   -0.20491  -0.17973  -0.17402  -0.13048  -0.12114
 Alpha virt. eigenvalues --   -0.11133  -0.09669  -0.08663  -0.08334  -0.07574
 Alpha virt. eigenvalues --   -0.06945  -0.06821  -0.06581  -0.06264  -0.05324

 Mulliken atomic charges:
              1
     1  O   -0.869822
     2  O   -0.971984
     3  P    0.803910
     4  Ca   1.357267
     5  O   -0.971956
     6  Ca   1.485206
     7  O   -0.658164
     8  O   -0.659734
     9  Ca   1.485277
 Sum of Mulliken charges=   1.00000

 Dipole moment (field-independent basis, Debye):
    X=    -1.3271    Y=    -0.0028    Z=    -8.1482  Tot=     8.2555
 Quadrupole moment (field-independent basis, Debye-Ang):
   XX=   -62.1232   YY=   -36.3295   ZZ=   -75.9236
   XY=    -0.0002   XZ=    28.8140   YZ=     0.0050

 Normal termination of Gaussian 03 at Fri Jun 12 18:08:11 2015.
