 Gaussian 03, Revision E.01,
 Gaussian 03:  EM64T-G03RevE.01 11-Sep-2007

 ----------------------------------------------------
 # b3lyp/6-31+G(d,p) int=ultrafine pop=(ReadRadii,MK)
 ----------------------------------------------------

 -----------------------------------------
 mol_17.29.54.pdbcccc_plusQ.z58637.zip.xyz
 -----------------------------------------
 Symbolic Z-matrix:
 Charge =  1 Multiplicity = 1

                         Standard orientation:
 ---------------------------------------------------------------------
 Center     Atomic     Atomic              Coordinates (Angstroms)
 Number     Number      Type              X           Y           Z
 ---------------------------------------------------------------------
    1          8             0       -6.269561    0.011817    0.001609
    2         15             0       -4.796641    0.004807    0.000319
    3          8             0       -3.915711   -1.241853    0.000719
    4          8             0       -3.903502    1.243207    0.000649
    5         20             0       -1.853041   -0.008422   -0.000911
    6          8             0        0.290539   -0.007372   -0.002021
    7         20             0        2.424539   -0.002991   -0.000951
    8          8             0        4.625299    0.001519    0.000149
    9         20             0        6.695159    0.004880    0.001179
 ---------------------------------------------------------------------

 SCF Done:  E(RB+HF-LYP) =  -2750.19161337     A.U. after   11 cycles

 The electronic state is 1-A.
 Alpha  occ. eigenvalues -- -145.59029-145.44121-145.43939 -77.28502 -19.22682
 Alpha  occ. eigenvalues --  -19.22678 -19.21539 -19.17916 -19.11116 -15.65795
 Alpha  occ. eigenvalues --  -15.51138 -15.50866 -12.79013 -12.79013 -12.78879
 Alpha  occ. eigenvalues --  -12.64404 -12.64404 -12.64148 -12.64086 -12.64083
 Alpha  occ. eigenvalues --  -12.63874  -6.73880  -4.90480  -4.89988  -4.89949
 Alpha  occ. eigenvalues --   -2.02658  -1.88647  -1.88246  -1.30171  -1.30171
 Alpha  occ. eigenvalues --   -1.29276  -1.16749  -1.16746  -1.16344  -1.16114
 Alpha  occ. eigenvalues --   -1.16005  -1.15354  -1.11140  -1.04216  -1.03776
 Alpha  occ. eigenvalues --   -0.91929  -0.85133  -0.59374  -0.51041  -0.49848
 Alpha  occ. eigenvalues --   -0.49543  -0.43605  -0.40312  -0.39942  -0.39238
 Alpha  occ. eigenvalues --   -0.38670  -0.36179  -0.35963  -0.35961  -0.31344
 Alpha  occ. eigenvalues --   -0.29507  -0.29456
 Alpha virt. eigenvalues --   -0.26240  -0.16296  -0.16293  -0.15955  -0.13938
 Alpha virt. eigenvalues --   -0.12679  -0.08937  -0.08821  -0.08727  -0.08129
 Alpha virt. eigenvalues --   -0.07924  -0.06442  -0.06081  -0.06023  -0.05787

 Mulliken atomic charges:
              1
     1  O   -0.628642
     2  P    1.156864
     3  O   -0.693471
     4  O   -0.694220
     5  Ca   1.453778
     6  O   -1.242375
     7  Ca   1.350312
     8  O   -1.177563
     9  Ca   1.475317
 Sum of Mulliken charges=   1.00000

 Dipole moment (field-independent basis, Debye):
    X=    36.7261    Y=    -0.0141    Z=     0.0020  Tot=    36.7261
 Quadrupole moment (field-independent basis, Debye-Ang):
   XX=   115.8361   YY=   -84.3359   ZZ=   -72.8956
   XY=     0.3050   XZ=     0.0821   YZ=     0.0003

 Normal termination of Gaussian 03 at Fri Jun 12 18:13:11 2015.
