 Gaussian 03, Revision E.01,
 Gaussian 03:  EM64T-G03RevE.01 11-Sep-2007

 ----------------------------------------------------
 # b3lyp/6-31+G(d,p) int=ultrafine pop=(ReadRadii,MK)
 ----------------------------------------------------

 -----------------------------------------
 mol_17.26.30.pdbcccc_plusQ.z58389.zip.xyz
 -----------------------------------------
 Symbolic Z-matrix:
 Charge =  1 Multiplicity = 1

                         Standard orientation:
 ---------------------------------------------------------------------
 Center     Atomic     Atomic              Coordinates (Angstroms)
 Number     Number      Type              X           Y           Z
 ---------------------------------------------------------------------
    1          8             0       -1.512141   -1.922558    0.000540
    2          8             0       -2.601569    0.380433   -0.000030
    3          8             0        0.659043    2.448780   -0.000070
    4          8             0        2.261840   -0.927702   -0.786480
    5          8             0        2.261460   -0.928032    0.786550
    6         20             0        2.416812    1.203348    0.000570
    7         15             0       -2.843101   -1.141826    0.000580
    8         20             0       -1.440627    2.351212   -0.000510
    9         20             0        0.728688   -2.318560   -0.000700
 ---------------------------------------------------------------------

 SCF Done:  E(RB+HF-LYP) =  -2750.19710223     A.U. after    8 cycles

 The electronic state is 1-A.
 Alpha  occ. eigenvalues -- -145.50251-145.49521-145.43946 -77.30080 -19.27870
 Alpha  occ. eigenvalues --  -19.27706 -19.22484 -19.22479 -19.12216 -15.57114
 Alpha  occ. eigenvalues --  -15.56423 -15.50920 -12.70352 -12.70331 -12.70184
 Alpha  occ. eigenvalues --  -12.69676 -12.69630 -12.69459 -12.64145 -12.64142
 Alpha  occ. eigenvalues --  -12.63955  -6.75555  -4.92001  -4.91780  -4.91334
 Alpha  occ. eigenvalues --   -1.94320  -1.93664  -1.88350  -1.22292  -1.22017
 Alpha  occ. eigenvalues --   -1.21918  -1.21520  -1.21391  -1.20571  -1.16522
 Alpha  occ. eigenvalues --   -1.16137  -1.15618  -1.13714  -1.08484  -1.04683
 Alpha  occ. eigenvalues --   -0.86295  -0.86243  -0.67763  -0.57326  -0.52571
 Alpha  occ. eigenvalues --   -0.52500  -0.45802  -0.45761  -0.44709  -0.43917
 Alpha  occ. eigenvalues --   -0.42966  -0.40395  -0.34042  -0.32614  -0.30973
 Alpha  occ. eigenvalues --   -0.30565  -0.30366
 Alpha virt. eigenvalues --   -0.19724  -0.18399  -0.17452  -0.14059  -0.12040
 Alpha virt. eigenvalues --   -0.10578  -0.10166  -0.08901  -0.08321  -0.08286
 Alpha virt. eigenvalues --   -0.07014  -0.06735  -0.06064  -0.06000  -0.05477

 Mulliken atomic charges:
              1
     1  O   -0.701812
     2  O   -0.703786
     3  O   -1.246868
     4  O   -0.676261
     5  O   -0.676256
     6  Ca   1.394142
     7  P    0.654198
     8  Ca   1.458746
     9  Ca   1.497896
 Sum of Mulliken charges=   1.00000

 Dipole moment (field-independent basis, Debye):
    X=    -1.9833    Y=     0.5236    Z=    -0.0045  Tot=     2.0513
 Quadrupole moment (field-independent basis, Debye-Ang):
   XX=   -55.9497   YY=   -34.8336   ZZ=   -77.5237
   XY=   -11.2587   XZ=     0.0125   YZ=     0.0138

 Normal termination of Gaussian 03 at Fri Jun 12 18:00:17 2015.
