 Gaussian 03, Revision E.01,
 Gaussian 03:  EM64T-G03RevE.01 11-Sep-2007

 ----------------------------------------------------
 # b3lyp/6-31+G(d,p) int=ultrafine pop=(ReadRadii,MK)
 ----------------------------------------------------

 --------------------------------------
 mol_17.28.45.pdbc_plusQ.z58569.zip.xyz
 --------------------------------------
 Symbolic Z-matrix:
 Charge =  1 Multiplicity = 1

                         Standard orientation:
 ---------------------------------------------------------------------
 Center     Atomic     Atomic              Coordinates (Angstroms)
 Number     Number      Type              X           Y           Z
 ---------------------------------------------------------------------
    1          8             0        2.044762    0.001189    0.362210
    2          8             0        0.007862    1.275369    1.197850
    3         15             0        0.924922    0.000129    1.544920
    4         20             0       -1.850608   -0.001500    0.206400
    5          8             0       -4.009448   -0.000190   -0.384910
    6          8             0        0.009652   -1.276271    1.197280
    7          8             0       -0.220198   -0.000111   -1.481160
    8         20             0        1.013262   -1.752141   -0.861160
    9         20             0        1.010602    1.753549   -0.860440
 ---------------------------------------------------------------------

 SCF Done:  E(RB+HF-LYP) =  -2750.13169586     A.U. after   18 cycles

 The electronic state is 1-A.
 Alpha  occ. eigenvalues -- -145.54372-145.54368-145.46597 -77.31609 -19.27365
 Alpha  occ. eigenvalues --  -19.26996 -19.26994 -19.24473 -19.20314 -15.61167
 Alpha  occ. eigenvalues --  -15.61164 -15.53504 -12.74377 -12.74376 -12.74343
 Alpha  occ. eigenvalues --  -12.74342 -12.74302 -12.74301 -12.66757 -12.66708
 Alpha  occ. eigenvalues --  -12.66561  -6.76676  -4.93010  -4.92992  -4.92703
 Alpha  occ. eigenvalues --   -1.98340  -1.98302  -1.90923  -1.26508  -1.26016
 Alpha  occ. eigenvalues --   -1.25954  -1.25701  -1.25624  -1.25166  -1.18954
 Alpha  occ. eigenvalues --   -1.18822  -1.18453  -1.13862  -1.07085  -1.07042
 Alpha  occ. eigenvalues --   -0.94953  -0.93751  -0.67348  -0.56559  -0.56346
 Alpha  occ. eigenvalues --   -0.54260  -0.49235  -0.48807  -0.44124  -0.43967
 Alpha  occ. eigenvalues --   -0.43252  -0.40126  -0.39692  -0.37985  -0.37054
 Alpha  occ. eigenvalues --   -0.36105  -0.33479
 Alpha virt. eigenvalues --   -0.31048  -0.22194  -0.20830  -0.15135  -0.13386
 Alpha virt. eigenvalues --   -0.13011  -0.12151  -0.11853  -0.09007  -0.08141
 Alpha virt. eigenvalues --   -0.07783  -0.06995  -0.06902  -0.06235  -0.05588

 Mulliken atomic charges:
              1
     1  O   -0.952302
     2  O   -0.916019
     3  P    1.155890
     4  Ca   1.338057
     5  O   -0.499806
     6  O   -0.915950
     7  O   -1.199955
     8  Ca   1.495071
     9  Ca   1.495014
 Sum of Mulliken charges=   1.00000

 Dipole moment (field-independent basis, Debye):
    X=     9.7100    Y=     0.0004    Z=    -6.2058  Tot=    11.5237
 Quadrupole moment (field-independent basis, Debye-Ang):
   XX=   -93.0190   YY=   -37.0318   ZZ=   -79.8897
   XY=    -0.0077   XZ=   -22.7419   YZ=    -0.0040

 Normal termination of Gaussian 03 at Fri Jun 12 18:12:04 2015.
