 Gaussian 03, Revision E.01,
 Gaussian 03:  EM64T-G03RevE.01 11-Sep-2007

 ----------------------------------------------------
 # b3lyp/6-31+G(d,p) int=ultrafine pop=(ReadRadii,MK)
 ----------------------------------------------------

 ----------------------------------------
 mol_17.22.48.pdbccc_plusQ.z58198.zip.xyz
 ----------------------------------------
 Symbolic Z-matrix:
 Charge =  1 Multiplicity = 1

                         Standard orientation:
 ---------------------------------------------------------------------
 Center     Atomic     Atomic              Coordinates (Angstroms)
 Number     Number      Type              X           Y           Z
 ---------------------------------------------------------------------
    1          8             0        0.569702   -1.341150   -1.201450
    2          8             0        0.326862   -2.201280   -0.000680
    3          8             0        0.571332   -1.344250    1.201820
    4         20             0        2.515952   -1.147098   -0.001010
    5         15             0        1.873029    2.314201   -0.001040
    6          8             0        2.839020    1.102922   -0.002280
    7          8             0        0.403199    1.849890    0.004260
    8         20             0       -0.949899   -0.029951    0.002710
    9         20             0       -4.854870    0.214946   -0.001590
 ---------------------------------------------------------------------

 SCF Done:  E(RB+HF-LYP) =  -2750.06823408     A.U. after   10 cycles

 The electronic state is 1-A.
 Alpha  occ. eigenvalues -- -145.53958-145.51614-145.49133 -77.27723 -19.35538
 Alpha  occ. eigenvalues --  -19.26511 -19.26498 -19.25733 -19.25542 -15.61012
 Alpha  occ. eigenvalues --  -15.58412 -15.55975 -12.74149 -12.74148 -12.74136
 Alpha  occ. eigenvalues --  -12.71622 -12.71610 -12.71542 -12.69189 -12.69145
 Alpha  occ. eigenvalues --  -12.69122  -6.73264  -4.89703  -4.89482  -4.89043
 Alpha  occ. eigenvalues --   -1.98073  -1.95538  -1.93150  -1.25549  -1.25331
 Alpha  occ. eigenvalues --   -1.25328  -1.25178  -1.23115  -1.22995  -1.21446
 Alpha  occ. eigenvalues --   -1.20737  -1.20708  -1.17602  -1.11681  -1.06310
 Alpha  occ. eigenvalues --   -1.02360  -0.87014  -0.65349  -0.56300  -0.55171
 Alpha  occ. eigenvalues --   -0.54157  -0.54038  -0.50626  -0.50342  -0.43462
 Alpha  occ. eigenvalues --   -0.42612  -0.41692  -0.40603  -0.38298  -0.38219
 Alpha  occ. eigenvalues --   -0.34752  -0.29833
 Alpha virt. eigenvalues --   -0.19055  -0.17956  -0.17689  -0.15636  -0.15436
 Alpha virt. eigenvalues --   -0.12830  -0.10938  -0.09830  -0.09070  -0.08890
 Alpha virt. eigenvalues --   -0.08517  -0.08088  -0.06566  -0.06262  -0.05874

 Mulliken atomic charges:
              1
     1  O   -0.619834
     2  O   -0.092884
     3  O   -0.619459
     4  Ca   1.514548
     5  P    0.640168
     6  O   -0.707772
     7  O   -0.677962
     8  Ca   1.111553
     9  Ca   0.451643
 Sum of Mulliken charges=   1.00000

 Dipole moment (field-independent basis, Debye):
    X=    -5.3236    Y=    -2.1247    Z=    -0.0028  Tot=     5.7320
 Quadrupole moment (field-independent basis, Debye-Ang):
   XX=    17.3494   YY=   -87.1114   ZZ=   -88.8524
   XY=   -21.7026   XZ=     0.0159   YZ=     0.0040

 Normal termination of Gaussian 03 at Fri Jun 12 17:51:12 2015.
