 Gaussian 03, Revision E.01,
 Gaussian 03:  EM64T-G03RevE.01 11-Sep-2007

 ----------------------------------------------------
 # b3lyp/6-31+G(d,p) int=ultrafine pop=(ReadRadii,MK)
 ----------------------------------------------------

 --------------------------------------
 mol_17.25.42.pdbc_plusQ.z58347.zip.xyz
 --------------------------------------
 Symbolic Z-matrix:
 Charge =  1 Multiplicity = 1

                         Standard orientation:
 ---------------------------------------------------------------------
 Center     Atomic     Atomic              Coordinates (Angstroms)
 Number     Number      Type              X           Y           Z
 ---------------------------------------------------------------------
    1          8             0        1.236884    1.286494   -0.437941
    2          8             0       -0.591642    0.004962   -1.656011
    3          8             0       -0.606792   -0.006308    1.520849
    4          8             0       -2.067472   -0.002682    1.105649
    5         20             0       -1.054319   -1.671276   -0.142311
    6          8             0        1.237323   -1.283666   -0.445741
    7         15             0        1.063978    0.004775   -1.531411
    8         20             0       -1.054574    1.672054   -0.132871
    9         20             0        1.627588   -0.003878    1.389019
 ---------------------------------------------------------------------

 SCF Done:  E(RB+HF-LYP) =  -2750.24881773     A.U. after    7 cycles

 The electronic state is 1-A.
 Alpha  occ. eigenvalues -- -145.52389-145.50177-145.50169 -77.25154 -19.25910
 Alpha  occ. eigenvalues --  -19.25459 -19.21784 -19.21784 -19.21333 -15.59147
 Alpha  occ. eigenvalues --  -15.56976 -15.56968 -12.72336 -12.72331 -12.72305
 Alpha  occ. eigenvalues --  -12.70184 -12.70177 -12.70176 -12.70169 -12.70096
 Alpha  occ. eigenvalues --  -12.70090  -6.70242  -4.86596  -4.86587  -4.86027
 Alpha  occ. eigenvalues --   -1.96325  -1.94226  -1.94160  -1.24348  -1.23880
 Alpha  occ. eigenvalues --   -1.23783  -1.22780  -1.22073  -1.21713  -1.21638
 Alpha  occ. eigenvalues --   -1.21518  -1.21220  -1.10031  -1.07324  -1.00850
 Alpha  occ. eigenvalues --   -1.00732  -0.89076  -0.63092  -0.51345  -0.51077
 Alpha  occ. eigenvalues --   -0.50976  -0.49233  -0.48450  -0.46043  -0.43790
 Alpha  occ. eigenvalues --   -0.43556  -0.38833  -0.38640  -0.38610  -0.35299
 Alpha  occ. eigenvalues --   -0.33989  -0.31697
 Alpha virt. eigenvalues --   -0.20303  -0.18387  -0.17630  -0.12784  -0.12601
 Alpha virt. eigenvalues --   -0.10906  -0.09917  -0.09096  -0.08254  -0.07950
 Alpha virt. eigenvalues --   -0.07348  -0.06562  -0.06018  -0.05818  -0.04925

 Mulliken atomic charges:
              1
     1  O   -1.043726
     2  O   -1.034866
     3  O   -0.725399
     4  O   -0.643921
     5  Ca   1.462673
     6  O   -1.043649
     7  P    1.083135
     8  Ca   1.462582
     9  Ca   1.483170
 Sum of Mulliken charges=   1.00000

 Dipole moment (field-independent basis, Debye):
    X=    -0.9332    Y=    -0.0131    Z=     6.2085  Tot=     6.2783
 Quadrupole moment (field-independent basis, Debye-Ang):
   XX=   -63.6682   YY=   -44.2248   ZZ=   -80.5644
   XY=    -0.0819   XZ=    28.3144   YZ=     0.1113

 Normal termination of Gaussian 03 at Fri Jun 12 17:58:01 2015.
