 Gaussian 03, Revision E.01,
 Gaussian 03:  EM64T-G03RevE.01 11-Sep-2007

 ----------------------------------------------------
 # b3lyp/6-31+G(d,p) int=ultrafine pop=(ReadRadii,MK)
 ----------------------------------------------------

 -----------------------------------------
 mol_17.27.33.pdbcccc_plusQ.z58500.zip.xyz
 -----------------------------------------
 Symbolic Z-matrix:
 Charge =  1 Multiplicity = 1

                         Standard orientation:
 ---------------------------------------------------------------------
 Center     Atomic     Atomic              Coordinates (Angstroms)
 Number     Number      Type              X           Y           Z
 ---------------------------------------------------------------------
    1          8             0       -0.694152   -2.008053    0.784592
    2          8             0       -0.694212   -2.007973   -0.784648
    3          8             0       -1.896953    1.368214    0.785722
    4          8             0       -1.897063    1.368204   -0.785628
    5         20             0       -2.391186   -0.715708    0.000082
    6         15             0        3.297190    0.487950    0.000152
    7         20             0        1.362107   -1.718956   -0.000088
    8          8             0        1.703989    0.740115   -0.000088
    9         20             0       -0.052456    2.284499   -0.000088
 ---------------------------------------------------------------------

 SCF Done:  E(RB+HF-LYP) =  -2750.03111758     A.U. after   11 cycles

 The electronic state is 1-A.
 Alpha  occ. eigenvalues -- -145.52430-145.50046-145.45771 -77.26981 -19.31940
 Alpha  occ. eigenvalues --  -19.23157 -19.23118 -19.22641 -19.22614 -15.59246
 Alpha  occ. eigenvalues --  -15.56944 -15.52671 -12.72473 -12.72460 -12.72341
 Alpha  occ. eigenvalues --  -12.70171 -12.70167 -12.70010 -12.65907 -12.65859
 Alpha  occ. eigenvalues --  -12.65759  -6.73278  -4.90039  -4.89524  -4.88531
 Alpha  occ. eigenvalues --   -1.96379  -1.94182  -1.90002  -1.24306  -1.23963
 Alpha  occ. eigenvalues --   -1.23915  -1.22062  -1.21927  -1.21849  -1.18154
 Alpha  occ. eigenvalues --   -1.17916  -1.17512  -1.12829  -1.05808  -1.04925
 Alpha  occ. eigenvalues --   -0.86961  -0.86371  -0.69656  -0.53428  -0.52148
 Alpha  occ. eigenvalues --   -0.51842  -0.46570  -0.46000  -0.45778  -0.44520
 Alpha  occ. eigenvalues --   -0.44034  -0.42826  -0.34722  -0.34089  -0.32049
 Alpha  occ. eigenvalues --   -0.31949  -0.30579
 Alpha virt. eigenvalues --   -0.26329  -0.19896  -0.17121  -0.14473  -0.13332
 Alpha virt. eigenvalues --   -0.12634  -0.11452  -0.09798  -0.09267  -0.08763
 Alpha virt. eigenvalues --   -0.07244  -0.07126  -0.06598  -0.06005  -0.05852

 Mulliken atomic charges:
              1
     1  O   -0.670080
     2  O   -0.669516
     3  O   -0.665285
     4  O   -0.664450
     5  Ca   1.453843
     6  P    0.050233
     7  Ca   1.355843
     8  O   -0.701973
     9  Ca   1.511385
 Sum of Mulliken charges=   1.00000

 Dipole moment (field-independent basis, Debye):
    X=     3.4151    Y=     2.6009    Z=    -0.0060  Tot=     4.2928
 Quadrupole moment (field-independent basis, Debye-Ang):
   XX=   -54.1790   YY=   -51.2316   ZZ=   -81.0988
   XY=     2.6111   XZ=     0.0047   YZ=    -0.0012

 Normal termination of Gaussian 03 at Fri Jun 12 18:07:04 2015.
