 Gaussian 03, Revision E.01,
 Gaussian 03:  EM64T-G03RevE.01 11-Sep-2007

 ----------------------------------------------------
 # b3lyp/6-31+G(d,p) int=ultrafine pop=(ReadRadii,MK)
 ----------------------------------------------------

 ---------------------------------------
 mol_17.24.41.pdbcc_plusQ.z58294.zip.xyz
 ---------------------------------------
 Symbolic Z-matrix:
 Charge =  1 Multiplicity = 1

                         Standard orientation:
 ---------------------------------------------------------------------
 Center     Atomic     Atomic              Coordinates (Angstroms)
 Number     Number      Type              X           Y           Z
 ---------------------------------------------------------------------
    1          8             0        2.812039    0.819126   -0.553891
    2          8             0        0.072676   -1.563690   -0.734461
    3         15             0       -0.574683   -0.600720    0.280709
    4          8             0        0.521908   -0.169511    1.303639
    5          8             0       -1.953643   -1.098338    0.829039
    6         20             0       -3.183232    0.272323   -0.369641
    7          8             0       -1.006611    0.833991   -0.443741
    8         20             0        1.117020    1.881778    0.176139
    9         20             0        2.318676   -1.232193   -0.177261
 ---------------------------------------------------------------------

 SCF Done:  E(RB+HF-LYP) =  -2750.26915531     A.U. after    8 cycles

 The electronic state is 1-A.
 Alpha  occ. eigenvalues -- -145.53880-145.50358-145.49121 -77.31099 -19.24082
 Alpha  occ. eigenvalues --  -19.23751 -19.22020 -19.20898 -19.18554 -15.60764
 Alpha  occ. eigenvalues --  -15.57177 -15.55977 -12.73992 -12.73921 -12.73886
 Alpha  occ. eigenvalues --  -12.70406 -12.70390 -12.70266 -12.69204 -12.69176
 Alpha  occ. eigenvalues --  -12.69066  -6.75468  -4.91909  -4.91791  -4.91748
 Alpha  occ. eigenvalues --   -1.97916  -1.94292  -1.93217  -1.25689  -1.25501
 Alpha  occ. eigenvalues --   -1.25193  -1.22335  -1.21888  -1.21580  -1.20988
 Alpha  occ. eigenvalues --   -1.20834  -1.20337  -1.12678  -1.04549  -1.03706
 Alpha  occ. eigenvalues --   -1.02513  -0.91598  -0.62599  -0.54021  -0.53470
 Alpha  occ. eigenvalues --   -0.52644  -0.46942  -0.44745  -0.44038  -0.42407
 Alpha  occ. eigenvalues --   -0.41944  -0.39393  -0.38034  -0.37124  -0.36557
 Alpha  occ. eigenvalues --   -0.34866  -0.34597
 Alpha virt. eigenvalues --   -0.21764  -0.18344  -0.17050  -0.12962  -0.12133
 Alpha virt. eigenvalues --   -0.10104  -0.10035  -0.09176  -0.08492  -0.07811
 Alpha virt. eigenvalues --   -0.07107  -0.06541  -0.05569  -0.05317  -0.04892

 Mulliken atomic charges:
              1
     1  O   -1.345386
     2  O   -0.890611
     3  P    1.800164
     4  O   -1.039013
     5  O   -0.881419
     6  Ca   1.587124
     7  O   -1.123329
     8  Ca   1.455925
     9  Ca   1.436546
 Sum of Mulliken charges=   1.00000

 Dipole moment (field-independent basis, Debye):
    X=   -14.4699    Y=     4.6820    Z=    -0.7242  Tot=    15.2258
 Quadrupole moment (field-independent basis, Debye-Ang):
   XX=   -12.2777   YY=   -49.2046   ZZ=   -83.3065
   XY=   -32.0580   XZ=    20.4145   YZ=     7.3478

 Normal termination of Gaussian 03 at Fri Jun 12 17:56:07 2015.
