 Gaussian 03, Revision E.01,
 Gaussian 03:  EM64T-G03RevE.01 11-Sep-2007

 ----------------------------------------------------
 # b3lyp/6-31+G(d,p) int=ultrafine pop=(ReadRadii,MK)
 ----------------------------------------------------

 --------------------------------------
 mol_17.24.42.pdbc_plusQ.z58295.zip.xyz
 --------------------------------------
 Symbolic Z-matrix:
 Charge =  1 Multiplicity = 1

                         Standard orientation:
 ---------------------------------------------------------------------
 Center     Atomic     Atomic              Coordinates (Angstroms)
 Number     Number      Type              X           Y           Z
 ---------------------------------------------------------------------
    1          8             0        2.261948   -0.926748   -0.785880
    2          8             0        2.261568   -0.924488    0.787090
    3         15             0       -2.840883   -1.144589   -0.004020
    4          8             0       -1.510125   -1.925574   -0.000980
    5          8             0       -2.599167    0.377570    0.002850
    6         20             0        0.731173   -2.318882    0.002470
    7         20             0       -1.443440    2.351196    0.002200
    8          8             0        0.656110    2.450008   -0.001670
    9         20             0        2.414796    1.205822   -0.002220
 ---------------------------------------------------------------------

 SCF Done:  E(RB+HF-LYP) =  -2750.19710181     A.U. after    8 cycles

 The electronic state is 1-A.
 Alpha  occ. eigenvalues -- -145.50247-145.49519-145.43945 -77.30075 -19.27863
 Alpha  occ. eigenvalues --  -19.27701 -19.22480 -19.22475 -19.12212 -15.57111
 Alpha  occ. eigenvalues --  -15.56421 -15.50918 -12.70348 -12.70327 -12.70181
 Alpha  occ. eigenvalues --  -12.69674 -12.69628 -12.69458 -12.64143 -12.64140
 Alpha  occ. eigenvalues --  -12.63953  -6.75550  -4.91996  -4.91774  -4.91328
 Alpha  occ. eigenvalues --   -1.94316  -1.93662  -1.88347  -1.22288  -1.22013
 Alpha  occ. eigenvalues --   -1.21914  -1.21518  -1.21389  -1.20569  -1.16520
 Alpha  occ. eigenvalues --   -1.16135  -1.15615  -1.13710  -1.08480  -1.04681
 Alpha  occ. eigenvalues --   -0.86292  -0.86239  -0.67759  -0.57322  -0.52567
 Alpha  occ. eigenvalues --   -0.52496  -0.45800  -0.45757  -0.44707  -0.43914
 Alpha  occ. eigenvalues --   -0.42963  -0.40388  -0.34039  -0.32610  -0.30969
 Alpha  occ. eigenvalues --   -0.30561  -0.30362
 Alpha virt. eigenvalues --   -0.19718  -0.18400  -0.17451  -0.14057  -0.12036
 Alpha virt. eigenvalues --   -0.10578  -0.10162  -0.08901  -0.08320  -0.08283
 Alpha virt. eigenvalues --   -0.07013  -0.06736  -0.06063  -0.05998  -0.05475

 Mulliken atomic charges:
              1
     1  O   -0.676282
     2  O   -0.676276
     3  P    0.653784
     4  O   -0.701712
     5  O   -0.703641
     6  Ca   1.498094
     7  Ca   1.458874
     8  O   -1.246915
     9  Ca   1.394074
 Sum of Mulliken charges=   1.00000

 Dipole moment (field-independent basis, Debye):
    X=    -1.9869    Y=     0.5245    Z=     0.0140  Tot=     2.0550
 Quadrupole moment (field-independent basis, Debye-Ang):
   XX=   -55.8999   YY=   -34.8070   ZZ=   -77.5235
   XY=   -11.3328   XZ=    -0.0322   YZ=    -0.0139

 Normal termination of Gaussian 03 at Fri Jun 12 17:55:58 2015.
