 Gaussian 03, Revision E.01,
 Gaussian 03:  EM64T-G03RevE.01 11-Sep-2007

 ----------------------------------------------------
 # b3lyp/6-31+G(d,p) int=ultrafine pop=(ReadRadii,MK)
 ----------------------------------------------------

 ----------------------------------------
 mol_17.24.24.pdbccc_plusQ.z58279.zip.xyz
 ----------------------------------------
 Symbolic Z-matrix:
 Charge =  1 Multiplicity = 1

                         Standard orientation:
 ---------------------------------------------------------------------
 Center     Atomic     Atomic              Coordinates (Angstroms)
 Number     Number      Type              X           Y           Z
 ---------------------------------------------------------------------
    1          8             0       -1.261280    0.754831    0.701339
    2          8             0       -2.562180    0.080792    0.389239
    3         20             0       -1.282671   -1.229699   -0.922831
    4         15             0       -0.046060   -0.056040    1.763429
    5          8             0        1.157951    0.879289    1.118359
    6          8             0        0.170069   -1.449060    0.924759
    7         20             0        2.035029   -0.776012   -0.272671
    8         20             0        0.080851    1.946340   -0.699961
    9          8             0        0.498780   -0.012350   -1.701461
 ---------------------------------------------------------------------

 SCF Done:  E(RB+HF-LYP) =  -2750.19417606     A.U. after    9 cycles

 The electronic state is 1-A.
 Alpha  occ. eigenvalues -- -145.51665-145.51603-145.48699 -77.27306 -19.29095
 Alpha  occ. eigenvalues --  -19.23584 -19.23490 -19.23309 -19.17358 -15.58478
 Alpha  occ. eigenvalues --  -15.58429 -15.55548 -12.71691 -12.71654 -12.71636
 Alpha  occ. eigenvalues --  -12.71605 -12.71601 -12.71556 -12.68776 -12.68742
 Alpha  occ. eigenvalues --  -12.68642  -6.72404  -4.88810  -4.88695  -4.88162
 Alpha  occ. eigenvalues --   -1.95727  -1.95671  -1.92859  -1.23981  -1.23553
 Alpha  occ. eigenvalues --   -1.23420  -1.23068  -1.23031  -1.22531  -1.21066
 Alpha  occ. eigenvalues --   -1.20535  -1.19964  -1.13356  -1.07584  -1.03126
 Alpha  occ. eigenvalues --   -0.92332  -0.90597  -0.65540  -0.55306  -0.53395
 Alpha  occ. eigenvalues --   -0.51719  -0.49585  -0.46927  -0.44137  -0.42340
 Alpha  occ. eigenvalues --   -0.40309  -0.37810  -0.37644  -0.36838  -0.35236
 Alpha  occ. eigenvalues --   -0.33508  -0.32032
 Alpha virt. eigenvalues --   -0.20906  -0.19066  -0.17411  -0.13460  -0.12276
 Alpha virt. eigenvalues --   -0.11630  -0.10500  -0.10039  -0.08921  -0.08221
 Alpha virt. eigenvalues --   -0.07987  -0.06859  -0.06591  -0.06167  -0.05828

 Mulliken atomic charges:
              1
     1  O   -0.591127
     2  O   -0.568791
     3  Ca   1.417158
     4  P    1.101798
     5  O   -1.000921
     6  O   -1.019092
     7  Ca   1.429080
     8  Ca   1.493382
     9  O   -1.261486
 Sum of Mulliken charges=   1.00000

 Dipole moment (field-independent basis, Debye):
    X=     6.9485    Y=    -0.0922    Z=    -8.5276  Tot=    11.0005
 Quadrupole moment (field-independent basis, Debye-Ang):
   XX=   -58.4177   YY=   -40.8651   ZZ=   -88.3348
   XY=     0.2903   XZ=     9.1189   YZ=    -0.1776

 Normal termination of Gaussian 03 at Fri Jun 12 17:55:41 2015.
