 Gaussian 03, Revision E.01,
 Gaussian 03:  EM64T-G03RevE.01 11-Sep-2007

 ----------------------------------------------------
 # b3lyp/6-31+G(d,p) int=ultrafine pop=(ReadRadii,MK)
 ----------------------------------------------------

 ----------------------------------------
 mol_17.23.21.pdbccc_plusQ.z58222.zip.xyz
 ----------------------------------------
 Symbolic Z-matrix:
 Charge =  1 Multiplicity = 1

                         Standard orientation:
 ---------------------------------------------------------------------
 Center     Atomic     Atomic              Coordinates (Angstroms)
 Number     Number      Type              X           Y           Z
 ---------------------------------------------------------------------
    1         20             0        2.529631   -0.928210   -0.153209
    2          8             0        2.522890    1.162590   -0.531769
    3         20             0        0.623680    1.898299    0.146291
    4          8             0        0.505381   -0.270851    1.339101
    5         15             0       -0.445339   -1.135401    0.457881
    6          8             0        0.415771   -2.004861   -0.483899
    7          8             0       -1.010100    0.287509   -0.791959
    8          8             0       -1.706510    1.379219    0.021361
    9         20             0       -3.110279   -0.339981   -0.157629
 ---------------------------------------------------------------------

 SCF Done:  E(RB+HF-LYP) =  -2750.14476522     A.U. after   10 cycles

 The electronic state is 1-A.
 Alpha  occ. eigenvalues -- -145.58539-145.46495-145.44791 -77.27969 -19.31189
 Alpha  occ. eigenvalues --  -19.28373 -19.23387 -19.23308 -19.09174 -15.65316
 Alpha  occ. eigenvalues --  -15.53358 -15.51650 -12.78540 -12.78504 -12.78448
 Alpha  occ. eigenvalues --  -12.66588 -12.66569 -12.66424 -12.64893 -12.64873
 Alpha  occ. eigenvalues --  -12.64697  -6.73382  -4.89915  -4.89591  -4.89230
 Alpha  occ. eigenvalues --   -2.02227  -1.90565  -1.88963  -1.30059  -1.29653
 Alpha  occ. eigenvalues --   -1.29435  -1.18675  -1.18259  -1.17991  -1.17566
 Alpha  occ. eigenvalues --   -1.16748  -1.16137  -1.13682  -1.09839  -1.04311
 Alpha  occ. eigenvalues --   -0.93641  -0.83344  -0.65071  -0.55665  -0.53638
 Alpha  occ. eigenvalues --   -0.53333  -0.50784  -0.49218  -0.44998  -0.41437
 Alpha  occ. eigenvalues --   -0.40604  -0.39750  -0.38781  -0.35544  -0.29125
 Alpha  occ. eigenvalues --   -0.27500  -0.27262
 Alpha virt. eigenvalues --   -0.24090  -0.16233  -0.15749  -0.14716  -0.13761
 Alpha virt. eigenvalues --   -0.12046  -0.11437  -0.09909  -0.09061  -0.07994
 Alpha virt. eigenvalues --   -0.07705  -0.07418  -0.06499  -0.05908  -0.05444

 Mulliken atomic charges:
              1
     1  Ca   1.392876
     2  O   -1.150951
     3  Ca   1.408678
     4  O   -0.863878
     5  P    0.629359
     6  O   -0.766973
     7  O   -0.470891
     8  O   -0.616886
     9  Ca   1.438666
 Sum of Mulliken charges=   1.00000

 Dipole moment (field-independent basis, Debye):
    X=   -11.2146    Y=    -2.2685    Z=     1.3564  Tot=    11.5218
 Quadrupole moment (field-independent basis, Debye-Ang):
   XX=    -8.7722   YY=   -66.1758   ZZ=   -84.6272
   XY=   -11.4739   XZ=     8.4838   YZ=     5.7230

 Normal termination of Gaussian 03 at Fri Jun 12 17:53:04 2015.
