 Gaussian 03, Revision E.01,
 Gaussian 03:  EM64T-G03RevE.01 11-Sep-2007

 ----------------------------------------------------
 # b3lyp/6-31+G(d,p) int=ultrafine pop=(ReadRadii,MK)
 ----------------------------------------------------

 --------------------------------------
 mol_17.26.23.pdbc_plusQ.z58382.zip.xyz
 --------------------------------------
 Symbolic Z-matrix:
 Charge =  1 Multiplicity = 1

                         Standard orientation:
 ---------------------------------------------------------------------
 Center     Atomic     Atomic              Coordinates (Angstroms)
 Number     Number      Type              X           Y           Z
 ---------------------------------------------------------------------
    1          8             0        1.475408    0.822762   -0.069618
    2          8             0       -0.904942    1.324410   -0.226668
    3          8             0       -2.143133    2.099669    0.029162
    4         20             0       -2.914551   -0.091662    0.003252
    5          8             0       -1.577470   -1.740091   -0.702528
    6          8             0       -1.490790   -1.584791    0.855872
    7         20             0        0.568040   -1.714249   -0.030098
    8         15             0        0.511377    2.028031    0.080072
    9         20             0        3.819349   -0.083896    0.012302
 ---------------------------------------------------------------------

 SCF Done:  E(RB+HF-LYP) =  -2749.98680872     A.U. after   12 cycles

 The electronic state is 1-A.
 Alpha  occ. eigenvalues -- -145.52777-145.50551-145.49997 -77.33915 -19.37530
 Alpha  occ. eigenvalues --  -19.31997 -19.28829 -19.23970 -19.23822 -15.59751
 Alpha  occ. eigenvalues --  -15.57417 -15.56912 -12.72915 -12.72905 -12.72870
 Alpha  occ. eigenvalues --  -12.70647 -12.70632 -12.70494 -12.70143 -12.70119
 Alpha  occ. eigenvalues --  -12.69981  -6.79536  -4.95847  -4.95792  -4.95345
 Alpha  occ. eigenvalues --   -1.96764  -1.94625  -1.94111  -1.24808  -1.24100
 Alpha  occ. eigenvalues --   -1.24065  -1.23947  -1.22883  -1.22222  -1.21825
 Alpha  occ. eigenvalues --   -1.21677  -1.21356  -1.20915  -1.14823  -1.06507
 Alpha  occ. eigenvalues --   -0.98144  -0.87650  -0.72313  -0.61958  -0.59775
 Alpha  occ. eigenvalues --   -0.58013  -0.51659  -0.51354  -0.47300  -0.46598
 Alpha  occ. eigenvalues --   -0.46291  -0.44334  -0.39986  -0.38011  -0.35418
 Alpha  occ. eigenvalues --   -0.32232  -0.27564
 Alpha virt. eigenvalues --   -0.24121  -0.18911  -0.17872  -0.15378  -0.14918
 Alpha virt. eigenvalues --   -0.13260  -0.12435  -0.11709  -0.10835  -0.09492
 Alpha virt. eigenvalues --   -0.08801  -0.08085  -0.07474  -0.07177  -0.06730

 Mulliken atomic charges:
              1
     1  O   -0.621270
     2  O   -0.342395
     3  O   -0.493301
     4  Ca   1.436345
     5  O   -0.660327
     6  O   -0.652641
     7  Ca   1.105991
     8  P    0.799010
     9  Ca   0.428588
 Sum of Mulliken charges=   1.00000

 Dipole moment (field-independent basis, Debye):
    X=     1.5216    Y=     0.2639    Z=    -0.2912  Tot=     1.5716
 Quadrupole moment (field-independent basis, Debye-Ang):
   XX=   -16.2818   YY=   -88.6068   ZZ=   -86.5967
   XY=     2.5246   XZ=     0.2456   YZ=     1.0160

 Normal termination of Gaussian 03 at Fri Jun 12 18:00:55 2015.
