 Gaussian 03, Revision E.01,
 Gaussian 03:  EM64T-G03RevE.01 11-Sep-2007

 ----------------------------------------------------
 # b3lyp/6-31+G(d,p) int=ultrafine pop=(ReadRadii,MK)
 ----------------------------------------------------

 ---------------------------------------
 mol_17.24.43.pdbcc_plusQ.z58296.zip.xyz
 ---------------------------------------
 Symbolic Z-matrix:
 Charge =  1 Multiplicity = 1

                         Standard orientation:
 ---------------------------------------------------------------------
 Center     Atomic     Atomic              Coordinates (Angstroms)
 Number     Number      Type              X           Y           Z
 ---------------------------------------------------------------------
    1          8             0        2.333259    0.072921   -1.258762
    2          8             0        2.335609    0.083111    1.261088
    3         15             0        2.111119   -0.724169    0.004818
    4          8             0        1.415180   -2.052999    0.009528
    5         20             0       -0.961850   -1.571161   -0.007332
    6          8             0       -3.060481   -1.082063    0.000208
    7         20             0       -2.876982    1.028938    0.005688
    8          8             0       -0.604152    0.851929   -0.002562
    9         20             0        1.287727    1.936190   -0.005772
 ---------------------------------------------------------------------

 SCF Done:  E(RB+HF-LYP) =  -2750.22493136     A.U. after   13 cycles

 The electronic state is 1-A.
 Alpha  occ. eigenvalues -- -145.54813-145.48082-145.46625 -77.36619 -19.30715
 Alpha  occ. eigenvalues --  -19.29782 -19.29661 -19.18887 -19.11437 -15.61598
 Alpha  occ. eigenvalues --  -15.54982 -15.53533 -12.74814 -12.74813 -12.74708
 Alpha  occ. eigenvalues --  -12.68220 -12.68141 -12.68062 -12.66799 -12.66721
 Alpha  occ. eigenvalues --  -12.66587  -6.81953  -4.98566  -4.98052  -4.98027
 Alpha  occ. eigenvalues --   -1.98633  -1.92281  -1.90861  -1.26781  -1.26120
 Alpha  occ. eigenvalues --   -1.25508  -1.20125  -1.20114  -1.19774  -1.19249
 Alpha  occ. eigenvalues --   -1.18823  -1.18246  -1.17555  -1.12514  -1.11298
 Alpha  occ. eigenvalues --   -0.93253  -0.85480  -0.67343  -0.58760  -0.57947
 Alpha  occ. eigenvalues --   -0.57887  -0.51182  -0.49178  -0.48423  -0.47302
 Alpha  occ. eigenvalues --   -0.43496  -0.39397  -0.38544  -0.36752  -0.31008
 Alpha  occ. eigenvalues --   -0.29568  -0.29325
 Alpha virt. eigenvalues --   -0.22705  -0.19529  -0.19089  -0.14336  -0.13254
 Alpha virt. eigenvalues --   -0.12957  -0.12288  -0.10722  -0.09678  -0.08601
 Alpha virt. eigenvalues --   -0.08395  -0.07654  -0.06994  -0.05960  -0.05496

 Mulliken atomic charges:
              1
     1  O   -0.623193
     2  O   -0.624432
     3  P    1.187355
     4  O   -0.654423
     5  Ca   1.371354
     6  O   -1.105776
     7  Ca   1.334586
     8  O   -1.357481
     9  Ca   1.472010
 Sum of Mulliken charges=   1.00000

 Dipole moment (field-independent basis, Debye):
    X=    -0.4310    Y=    12.1796    Z=    -0.0531  Tot=    12.1873
 Quadrupole moment (field-independent basis, Debye-Ang):
   XX=   -68.6968   YY=   -38.1085   ZZ=   -83.1709
   XY=   -10.9187   XZ=    -0.1493   YZ=     0.0572

 Normal termination of Gaussian 03 at Fri Jun 12 17:56:59 2015.
