 Gaussian 03, Revision E.01,
 Gaussian 03:  EM64T-G03RevE.01 11-Sep-2007

 ----------------------------------------------------
 # b3lyp/6-31+G(d,p) int=ultrafine pop=(ReadRadii,MK)
 ----------------------------------------------------

 ---------------------------------------
 mol_17.25.24.pdbcc_plusQ.z58329.zip.xyz
 ---------------------------------------
 Symbolic Z-matrix:
 Charge =  1 Multiplicity = 1

                         Standard orientation:
 ---------------------------------------------------------------------
 Center     Atomic     Atomic              Coordinates (Angstroms)
 Number     Number      Type              X           Y           Z
 ---------------------------------------------------------------------
    1          8             0       -2.054505   -1.878747    0.000000
    2          8             0       -2.406601    0.511974    0.000000
    3          8             0       -0.490948    2.265800    0.000000
    4          8             0        0.000000    0.904409    0.000000
    5         15             0       -1.275262   -0.475658    0.000000
    6         20             0        1.270545    3.585287    0.000000
    7          8             0        0.252006   -1.336361    0.000000
    8         20             0       -0.552188   -3.447660    0.000000
    9         20             0        2.118108    0.032286    0.000000
 ---------------------------------------------------------------------

 SCF Done:  E(RB+HF-LYP) =  -2749.96528753     A.U. after   15 cycles

 The electronic state is 1-A'.
 Alpha  occ. eigenvalues -- -145.55067-145.52132-145.50148 -77.31496 -19.28096
 Alpha  occ. eigenvalues --  -19.24295 -19.20989 -19.20973 -19.19251 -15.61896
 Alpha  occ. eigenvalues --  -15.59061 -15.57107 -12.75138 -12.75054 -12.75003
 Alpha  occ. eigenvalues --  -12.72269 -12.72266 -12.72127 -12.70330 -12.70277
 Alpha  occ. eigenvalues --  -12.70178  -6.75831  -4.92503  -4.92033  -4.91900
 Alpha  occ. eigenvalues --   -1.98982  -1.96105  -1.94349  -1.26665  -1.26351
 Alpha  occ. eigenvalues --   -1.26259  -1.23648  -1.23619  -1.23219  -1.22015
 Alpha  occ. eigenvalues --   -1.21962  -1.21603  -1.13249  -1.07954  -1.02915
 Alpha  occ. eigenvalues --   -0.99785  -0.87424  -0.63421  -0.54580  -0.51857
 Alpha  occ. eigenvalues --   -0.50460  -0.50299  -0.44988  -0.43785  -0.43495
 Alpha  occ. eigenvalues --   -0.41147  -0.38103  -0.36825  -0.32860  -0.32393
 Alpha  occ. eigenvalues --   -0.30068  -0.26767
 Alpha virt. eigenvalues --   -0.23722  -0.20202  -0.15776  -0.15043  -0.15022
 Alpha virt. eigenvalues --   -0.13911  -0.12759  -0.12027  -0.10996  -0.10881
 Alpha virt. eigenvalues --   -0.09831  -0.08479  -0.08046  -0.07755  -0.06749

 Mulliken atomic charges:
              1
     1  O   -0.882791
     2  O   -0.722371
     3  O   -0.468261
     4  O   -0.550228
     5  P    1.750878
     6  Ca   0.728299
     7  O   -1.033819
     8  Ca   1.314178
     9  Ca   0.864115
 Sum of Mulliken charges=   1.00000

 Dipole moment (field-independent basis, Debye):
    X=    11.2222    Y=    -6.5570    Z=     0.0000  Tot=    12.9973
 Quadrupole moment (field-independent basis, Debye-Ang):
   XX=   -94.8563   YY=    25.3032   ZZ=   -82.1232
   XY=    19.4268   XZ=     0.0000   YZ=     0.0000

 Normal termination of Gaussian 03 at Fri Jun 12 17:58:14 2015.
