 Gaussian 03, Revision E.01,
 Gaussian 03:  EM64T-G03RevE.01 11-Sep-2007

 ----------------------------------------------------
 # b3lyp/6-31+G(d,p) int=ultrafine pop=(ReadRadii,MK)
 ----------------------------------------------------

 -----------------------------------------
 mol_16.4.43.pdb_plusQc.out.z51593.zip.xyz
 -----------------------------------------
 Symbolic Z-matrix:
 Charge =  1 Multiplicity = 1

                         Standard orientation:
 ---------------------------------------------------------------------
 Center     Atomic     Atomic              Coordinates (Angstroms)
 Number     Number      Type              X           Y           Z
 ---------------------------------------------------------------------
    1          8             0        0.000349   -2.098898    0.719620
    2          8             0        0.000349   -2.098898   -0.719620
    3         15             0       -0.000261    2.326182    0.000000
    4          8             0        0.000349    1.449272   -1.271800
    5         20             0       -0.000181   -0.612468   -2.222010
    6         20             0       -0.000181   -0.612468    2.222010
    7          8             0        0.000349    1.449272    1.271800
 ---------------------------------------------------------------------

 SCF Done:  E(RB+HF-LYP) =  -1997.25607083     A.U. after    8 cycles

 The electronic state is 1-A'.
 Alpha  occ. eigenvalues -- -145.54167-145.54163 -77.31236 -19.28987 -19.28986
 Alpha  occ. eigenvalues --  -19.21047 -19.21039 -15.60974 -15.60971 -12.74219
 Alpha  occ. eigenvalues --  -12.74218 -12.74161 -12.74160 -12.74072 -12.74070
 Alpha  occ. eigenvalues --   -6.76705  -4.93147  -4.92931  -4.92483  -1.97990
 Alpha  occ. eigenvalues --   -1.97989  -1.25690  -1.25688  -1.25589  -1.25512
 Alpha  occ. eigenvalues --   -1.25259  -1.25056  -1.14971  -1.09634  -1.07606
 Alpha  occ. eigenvalues --   -0.82753  -0.68924  -0.58507  -0.53707  -0.53662
 Alpha  occ. eigenvalues --   -0.48825  -0.46909  -0.44977  -0.42792  -0.42347
 Alpha  occ. eigenvalues --   -0.41533  -0.28045  -0.28020
 Alpha virt. eigenvalues --   -0.21129  -0.21003  -0.20865  -0.13146  -0.12179
 Alpha virt. eigenvalues --   -0.11927  -0.10648  -0.10490  -0.09070  -0.07620
 Alpha virt. eigenvalues --   -0.06793  -0.06047  -0.05607  -0.05450  -0.04866

 Mulliken atomic charges:
              1
     1  O   -0.598085
     2  O   -0.598085
     3  P    0.690101
     4  O   -0.719110
     5  Ca   1.472145
     6  Ca   1.472145
     7  O   -0.719110
 Sum of Mulliken charges=   1.00000

 Dipole moment (field-independent basis, Debye):
    X=    -0.0063    Y=     1.4889    Z=     0.0000  Tot=     1.4889
 Quadrupole moment (field-independent basis, Debye-Ang):
   XX=   -54.9876   YY=   -78.8688   ZZ=     6.0213
   XY=     0.0045   XZ=     0.0000   YZ=     0.0000

 Normal termination of Gaussian 03 at Fri Jun 12 17:47:58 2015.
