 Gaussian 03, Revision E.01,
 Gaussian 03:  EM64T-G03RevE.01 11-Sep-2007

 ----------------------------------------------------
 # b3lyp/6-31+G(d,p) int=ultrafine pop=(ReadRadii,MK)
 ----------------------------------------------------

 -----------------------------------------
 mol_17.28.24.pdbcccc_plusQ.z58547.zip.xyz
 -----------------------------------------
 Symbolic Z-matrix:
 Charge =  1 Multiplicity = 1

                         Standard orientation:
 ---------------------------------------------------------------------
 Center     Atomic     Atomic              Coordinates (Angstroms)
 Number     Number      Type              X           Y           Z
 ---------------------------------------------------------------------
    1          8             0        1.238018    1.285072   -0.440791
    2          8             0       -0.608430    0.000029    1.521679
    3         20             0        1.625800    0.000002    1.390149
    4         15             0        1.065660   -0.000039   -1.530631
    5         20             0       -1.054443    1.671998   -0.138511
    6          8             0       -0.589680   -0.000011   -1.656301
    7          8             0        1.237992   -1.285108   -0.440761
    8         20             0       -1.054497   -1.671982   -0.138471
    9          8             0       -2.068160    0.000046    1.103189
 ---------------------------------------------------------------------

 SCF Done:  E(RB+HF-LYP) =  -2750.24881757     A.U. after    7 cycles

 The electronic state is 1-A.
 Alpha  occ. eigenvalues -- -145.52374-145.50187-145.50182 -77.25154 -19.25912
 Alpha  occ. eigenvalues --  -19.25462 -19.21783 -19.21783 -19.21333 -15.59133
 Alpha  occ. eigenvalues --  -15.56986 -15.56982 -12.72321 -12.72316 -12.72290
 Alpha  occ. eigenvalues --  -12.70193 -12.70192 -12.70184 -12.70184 -12.70105
 Alpha  occ. eigenvalues --  -12.70104  -6.70242  -4.86596  -4.86588  -4.86027
 Alpha  occ. eigenvalues --   -1.96312  -1.94236  -1.94170  -1.24339  -1.23869
 Alpha  occ. eigenvalues --   -1.23771  -1.22785  -1.22081  -1.21722  -1.21646
 Alpha  occ. eigenvalues --   -1.21528  -1.21230  -1.10034  -1.07325  -1.00850
 Alpha  occ. eigenvalues --   -1.00729  -0.89077  -0.63092  -0.51344  -0.51075
 Alpha  occ. eigenvalues --   -0.50976  -0.49232  -0.48450  -0.46045  -0.43788
 Alpha  occ. eigenvalues --   -0.43556  -0.38830  -0.38639  -0.38608  -0.35301
 Alpha  occ. eigenvalues --   -0.33990  -0.31699
 Alpha virt. eigenvalues --   -0.20295  -0.18392  -0.17635  -0.12781  -0.12603
 Alpha virt. eigenvalues --   -0.10900  -0.09919  -0.09098  -0.08256  -0.07949
 Alpha virt. eigenvalues --   -0.07350  -0.06562  -0.06019  -0.05817  -0.04925

 Mulliken atomic charges:
              1
     1  O   -1.043835
     2  O   -0.725459
     3  Ca   1.482809
     4  P    1.083281
     5  Ca   1.462800
     6  O   -1.034987
     7  O   -1.043826
     8  Ca   1.462807
     9  O   -0.643589
 Sum of Mulliken charges=   1.00000

 Dipole moment (field-independent basis, Debye):
    X=    -0.9514    Y=    -0.0001    Z=     6.2007  Tot=     6.2733
 Quadrupole moment (field-independent basis, Debye-Ang):
   XX=   -63.7325   YY=   -44.2072   ZZ=   -80.5252
   XY=     0.0008   XZ=    28.3231   YZ=    -0.0007

 Normal termination of Gaussian 03 at Fri Jun 12 18:08:44 2015.
