 Gaussian 03, Revision E.01,
 Gaussian 03:  EM64T-G03RevE.01 11-Sep-2007

 ----------------------------------------------------
 # b3lyp/6-31+G(d,p) int=ultrafine pop=(ReadRadii,MK)
 ----------------------------------------------------

 -----------------------------------------
 mol_17.27.12.pdbcccc_plusQ.z58479.zip.xyz
 -----------------------------------------
 Symbolic Z-matrix:
 Charge =  1 Multiplicity = 1

                         Standard orientation:
 ---------------------------------------------------------------------
 Center     Atomic     Atomic              Coordinates (Angstroms)
 Number     Number      Type              X           Y           Z
 ---------------------------------------------------------------------
    1          8             0       -1.717759   -0.447922   -1.154320
    2          8             0        2.902852   -1.106035   -0.153140
    3         20             0        0.808912   -1.397718   -0.554980
    4         20             0        2.827409    0.921535    0.473580
    5          8             0        0.610519    0.981762   -0.000360
    6          8             0       -1.313477   -1.969721    0.878150
    7         15             0       -1.972889   -0.754832    0.319800
    8          8             0       -2.613240    0.390537    1.056600
    9         20             0       -1.304213    1.902859   -0.409220
 ---------------------------------------------------------------------

 SCF Done:  E(RB+HF-LYP) =  -2750.22409435     A.U. after   12 cycles

 The electronic state is 1-A.
 Alpha  occ. eigenvalues -- -145.55019-145.47609-145.46735 -77.37124 -19.30894
 Alpha  occ. eigenvalues --  -19.30840 -19.30653 -19.18390 -19.11096 -15.61800
 Alpha  occ. eigenvalues --  -15.54513 -15.53591 -12.75021 -12.75010 -12.74906
 Alpha  occ. eigenvalues --  -12.67753 -12.67670 -12.67593 -12.66843 -12.66779
 Alpha  occ. eigenvalues --  -12.66673  -6.82488  -4.99082  -4.98596  -4.98567
 Alpha  occ. eigenvalues --   -1.98832  -1.91815  -1.90829  -1.26939  -1.26367
 Alpha  occ. eigenvalues --   -1.25697  -1.20662  -1.19674  -1.19440  -1.18800
 Alpha  occ. eigenvalues --   -1.18622  -1.18149  -1.17511  -1.13061  -1.12235
 Alpha  occ. eigenvalues --   -0.92915  -0.85114  -0.67754  -0.59233  -0.58686
 Alpha  occ. eigenvalues --   -0.58418  -0.52168  -0.49535  -0.48532  -0.48363
 Alpha  occ. eigenvalues --   -0.44652  -0.39039  -0.37857  -0.36631  -0.30687
 Alpha  occ. eigenvalues --   -0.29196  -0.28910
 Alpha virt. eigenvalues --   -0.22754  -0.19696  -0.18655  -0.14494  -0.13325
 Alpha virt. eigenvalues --   -0.13168  -0.12508  -0.10626  -0.09403  -0.08783
 Alpha virt. eigenvalues --   -0.07948  -0.07671  -0.06651  -0.06256  -0.05514

 Mulliken atomic charges:
              1
     1  O   -0.635803
     2  O   -1.115595
     3  Ca   1.316454
     4  Ca   1.356272
     5  O   -1.335421
     6  O   -0.591373
     7  P    1.146532
     8  O   -0.613221
     9  Ca   1.472155
 Sum of Mulliken charges=   1.00000

 Dipole moment (field-independent basis, Debye):
    X=    -0.8013    Y=    12.1098    Z=    -2.5705  Tot=    12.4055
 Quadrupole moment (field-independent basis, Debye-Ang):
   XX=   -65.0317   YY=   -46.1072   ZZ=   -77.1154
   XY=    10.5794   XZ=    14.6610   YZ=     2.4465

 Normal termination of Gaussian 03 at Fri Jun 12 18:03:11 2015.
