 Gaussian 03, Revision E.01,
 Gaussian 03:  EM64T-G03RevE.01 11-Sep-2007

 ----------------------------------------------------
 # b3lyp/6-31+G(d,p) int=ultrafine pop=(ReadRadii,MK)
 ----------------------------------------------------

 ----------------------------------------
 mol_17.24.10.pdbccc_plusQ.z58266.zip.xyz
 ----------------------------------------
 Symbolic Z-matrix:
 Charge =  1 Multiplicity = 1

                         Standard orientation:
 ---------------------------------------------------------------------
 Center     Atomic     Atomic              Coordinates (Angstroms)
 Number     Number      Type              X           Y           Z
 ---------------------------------------------------------------------
    1          8             0       -1.524360   -0.964740   -1.197562
    2          8             0       -2.027919   -1.710310    0.000608
    3          8             0       -1.522220   -0.964600    1.197958
    4         20             0       -2.737131    0.628390    0.000908
    5         20             0        0.371021   -1.564038   -0.001442
    6         15             0        3.062970   -0.015007    0.001258
    7          8             0        2.721771   -1.508417   -0.000232
    8          8             0        1.682289    0.744872    0.000628
    9         20             0        0.337058    2.708181   -0.000972
 ---------------------------------------------------------------------

 SCF Done:  E(RB+HF-LYP) =  -2750.06735240     A.U. after   10 cycles

 The electronic state is 1-A.
 Alpha  occ. eigenvalues -- -145.52970-145.52149-145.51419 -77.31697 -19.37674
 Alpha  occ. eigenvalues --  -19.30313 -19.28969 -19.28168 -19.28160 -15.59934
 Alpha  occ. eigenvalues --  -15.59049 -15.58208 -12.73120 -12.73109 -12.73021
 Alpha  occ. eigenvalues --  -12.72259 -12.72223 -12.72162 -12.71458 -12.71428
 Alpha  occ. eigenvalues --  -12.71298  -6.77319  -4.93752  -4.93524  -4.93099
 Alpha  occ. eigenvalues --   -1.97001  -1.96162  -1.95356  -1.26984  -1.24440
 Alpha  occ. eigenvalues --   -1.24429  -1.24139  -1.23607  -1.23536  -1.23275
 Alpha  occ. eigenvalues --   -1.22974  -1.22950  -1.19305  -1.15635  -1.09969
 Alpha  occ. eigenvalues --   -1.03943  -0.88876  -0.68950  -0.57965  -0.57957
 Alpha  occ. eigenvalues --   -0.56492  -0.55887  -0.55282  -0.54395  -0.46928
 Alpha  occ. eigenvalues --   -0.45814  -0.44298  -0.43164  -0.41869  -0.39622
 Alpha  occ. eigenvalues --   -0.36811  -0.28247
 Alpha virt. eigenvalues --   -0.21637  -0.20059  -0.16049  -0.15692  -0.15056
 Alpha virt. eigenvalues --   -0.13946  -0.12843  -0.11415  -0.10393  -0.09815
 Alpha virt. eigenvalues --   -0.09402  -0.08261  -0.07767  -0.07663  -0.06889

 Mulliken atomic charges:
              1
     1  O   -0.589082
     2  O   -0.058416
     3  O   -0.588871
     4  Ca   0.904345
     5  Ca   1.394051
     6  P    0.694225
     7  O   -0.622198
     8  O   -0.727450
     9  Ca   0.593396
 Sum of Mulliken charges=   1.00000

 Dipole moment (field-independent basis, Debye):
    X=    -1.8967    Y=     4.4575    Z=    -0.0050  Tot=     4.8443
 Quadrupole moment (field-independent basis, Debye-Ang):
   XX=   -56.8964   YY=   -62.0062   ZZ=   -89.5503
   XY=    -1.5818   XZ=    -0.0248   YZ=     0.0112

 Normal termination of Gaussian 03 at Fri Jun 12 17:54:57 2015.
