 Gaussian 03, Revision E.01,
 Gaussian 03:  EM64T-G03RevE.01 11-Sep-2007

 ----------------------------------------------------
 # b3lyp/6-31+G(d,p) int=ultrafine pop=(ReadRadii,MK)
 ----------------------------------------------------

 -------------------------------------
 mol_17.27.5.pdbc_plusQ.z58526.zip.xyz
 -------------------------------------
 Symbolic Z-matrix:
 Charge =  1 Multiplicity = 1

                         Standard orientation:
 ---------------------------------------------------------------------
 Center     Atomic     Atomic              Coordinates (Angstroms)
 Number     Number      Type              X           Y           Z
 ---------------------------------------------------------------------
    1          8             0       -2.602389    0.378351    0.000609
    2          8             0       -1.509978   -1.923173   -0.000741
    3         15             0       -2.841955   -1.144188   -0.000301
    4         20             0        0.730931   -2.318172    0.000179
    5          8             0        2.262976   -0.926257   -0.786051
    6          8             0        2.262066   -0.925637    0.786989
    7         20             0        2.415934    1.205432   -0.000271
    8          8             0        0.656529    2.448629   -0.000591
    9         20             0       -1.443081    2.350116    0.000229
 ---------------------------------------------------------------------

 SCF Done:  E(RB+HF-LYP) =  -2750.19710362     A.U. after    8 cycles

 The electronic state is 1-A.
 Alpha  occ. eigenvalues -- -145.50248-145.49520-145.43947 -77.30079 -19.27867
 Alpha  occ. eigenvalues --  -19.27702 -19.22481 -19.22475 -19.12216 -15.57111
 Alpha  occ. eigenvalues --  -15.56422 -15.50921 -12.70348 -12.70328 -12.70181
 Alpha  occ. eigenvalues --  -12.69676 -12.69629 -12.69459 -12.64146 -12.64143
 Alpha  occ. eigenvalues --  -12.63956  -6.75553  -4.91999  -4.91778  -4.91331
 Alpha  occ. eigenvalues --   -1.94316  -1.93663  -1.88350  -1.22288  -1.22013
 Alpha  occ. eigenvalues --   -1.21914  -1.21519  -1.21390  -1.20571  -1.16522
 Alpha  occ. eigenvalues --   -1.16138  -1.15618  -1.13711  -1.08480  -1.04680
 Alpha  occ. eigenvalues --   -0.86296  -0.86240  -0.67759  -0.57323  -0.52567
 Alpha  occ. eigenvalues --   -0.52496  -0.45799  -0.45757  -0.44706  -0.43913
 Alpha  occ. eigenvalues --   -0.42962  -0.40390  -0.34039  -0.32615  -0.30971
 Alpha  occ. eigenvalues --   -0.30565  -0.30365
 Alpha virt. eigenvalues --   -0.19720  -0.18399  -0.17451  -0.14061  -0.12037
 Alpha virt. eigenvalues --   -0.10577  -0.10163  -0.08900  -0.08320  -0.08285
 Alpha virt. eigenvalues --   -0.07013  -0.06734  -0.06064  -0.06000  -0.05476

 Mulliken atomic charges:
              1
     1  O   -0.703724
     2  O   -0.701765
     3  P    0.654051
     4  Ca   1.497961
     5  O   -0.676281
     6  O   -0.676302
     7  Ca   1.394253
     8  O   -1.247039
     9  Ca   1.458846
 Sum of Mulliken charges=   1.00000

 Dipole moment (field-independent basis, Debye):
    X=    -1.9820    Y=     0.5240    Z=     0.0017  Tot=     2.0501
 Quadrupole moment (field-independent basis, Debye-Ang):
   XX=   -55.9192   YY=   -34.8146   ZZ=   -77.5232
   XY=   -11.2754   XZ=    -0.0058   YZ=     0.0033

 Normal termination of Gaussian 03 at Fri Jun 12 18:07:55 2015.
