 Gaussian 03, Revision E.01,
 Gaussian 03:  EM64T-G03RevE.01 11-Sep-2007

 ----------------------------------------------------
 # b3lyp/6-31+G(d,p) int=ultrafine pop=(ReadRadii,MK)
 ----------------------------------------------------

 -----------------------------------------
 mol_16.4.27.pdbc_plusQ.out.z51577.zip.xyz
 -----------------------------------------
 Symbolic Z-matrix:
 Charge =  1 Multiplicity = 1

                         Standard orientation:
 ---------------------------------------------------------------------
 Center     Atomic     Atomic              Coordinates (Angstroms)
 Number     Number      Type              X           Y           Z
 ---------------------------------------------------------------------
    1          8             0       -1.712290    0.006083    0.786810
    2          8             0       -1.715320    0.006003   -0.785080
    3         15             0        2.319740   -0.007920    0.000300
    4          8             0        1.437547   -1.278099   -0.001650
    5          8             0        1.447052    1.268921    0.000530
    6         20             0       -0.754260    1.859954   -0.000540
    7         20             0       -0.768340   -1.855177    0.000070
 ---------------------------------------------------------------------

 SCF Done:  E(RB+HF-LYP) =  -1997.33372355     A.U. after    6 cycles

 The electronic state is 1-A.
 Alpha  occ. eigenvalues -- -145.53248-145.53238 -77.30168 -19.27991 -19.27928
 Alpha  occ. eigenvalues --  -19.25644 -19.25526 -15.60095 -15.60086 -12.73310
 Alpha  occ. eigenvalues --  -12.73300 -12.73292 -12.73282 -12.73209 -12.73199
 Alpha  occ. eigenvalues --   -6.75649  -4.92089  -4.91874  -4.91429  -1.97235
 Alpha  occ. eigenvalues --   -1.97208  -1.25768  -1.24805  -1.24793  -1.24725
 Alpha  occ. eigenvalues --   -1.24724  -1.24301  -1.13934  -1.08565  -1.08265
 Alpha  occ. eigenvalues --   -0.89514  -0.67713  -0.57291  -0.52833  -0.52611
 Alpha  occ. eigenvalues --   -0.49001  -0.47952  -0.46130  -0.45773  -0.43912
 Alpha  occ. eigenvalues --   -0.40706  -0.37186  -0.34164
 Alpha virt. eigenvalues --   -0.20455  -0.19859  -0.19629  -0.14475  -0.11367
 Alpha virt. eigenvalues --   -0.11282  -0.10317  -0.09667  -0.09030  -0.07375
 Alpha virt. eigenvalues --   -0.07216  -0.06432  -0.05962  -0.05215  -0.04857

 Mulliken atomic charges:
              1
     1  O   -0.669653
     2  O   -0.667315
     3  P    0.668743
     4  O   -0.709216
     5  O   -0.710205
     6  Ca   1.543766
     7  Ca   1.543880
 Sum of Mulliken charges=   1.00000

 Dipole moment (field-independent basis, Debye):
    X=    -3.1337    Y=    -0.0027    Z=    -0.0151  Tot=     3.1337
 Quadrupole moment (field-independent basis, Debye-Ang):
   XX=   -66.5155   YY=    -8.9178   ZZ=   -58.2514
   XY=     0.2077   XZ=     0.0243   YZ=    -0.0202

 Normal termination of Gaussian 03 at Fri Jun 12 17:48:13 2015.
