 Gaussian 03, Revision E.01,
 Gaussian 03:  EM64T-G03RevE.01 11-Sep-2007

 ----------------------------------------------------
 # b3lyp/6-31+G(d,p) int=ultrafine pop=(ReadRadii,MK)
 ----------------------------------------------------

 --------------------------------------
 mol_17.25.14.pdbc_plusQ.z58321.zip.xyz
 --------------------------------------
 Symbolic Z-matrix:
 Charge =  1 Multiplicity = 1

                         Standard orientation:
 ---------------------------------------------------------------------
 Center     Atomic     Atomic              Coordinates (Angstroms)
 Number     Number      Type              X           Y           Z
 ---------------------------------------------------------------------
    1         20             0       -2.929328    0.404032   -0.158519
    2          8             0       -2.262429   -1.699519    0.029911
    3          8             0       -1.274559   -1.030319    0.981041
    4          8             0        0.625191   -1.445760   -0.866549
    5         15             0       -0.049269   -0.444679    0.063571
    6         20             0        2.805871   -1.095160   -0.121369
    7          8             0        1.063112    0.132550    1.019171
    8         20             0        1.181122    2.303000    0.013311
    9          8             0       -0.703098    0.847141   -0.616329
 ---------------------------------------------------------------------

 SCF Done:  E(RB+HF-LYP) =  -2750.13411000     A.U. after   14 cycles

 The electronic state is 1-A.
 Alpha  occ. eigenvalues -- -145.55019-145.53144-145.52176 -77.34902 -19.31703
 Alpha  occ. eigenvalues --  -19.26591 -19.25712 -19.25417 -19.23953 -15.61834
 Alpha  occ. eigenvalues --  -15.60025 -15.59087 -12.75071 -12.75001 -12.74957
 Alpha  occ. eigenvalues --  -12.73240 -12.73196 -12.73140 -12.72293 -12.72250
 Alpha  occ. eigenvalues --  -12.72200  -6.79356  -4.95762  -4.95716  -4.95594
 Alpha  occ. eigenvalues --   -1.98857  -1.97012  -1.96116  -1.26986  -1.26419
 Alpha  occ. eigenvalues --   -1.26083  -1.24778  -1.24465  -1.24277  -1.23660
 Alpha  occ. eigenvalues --   -1.23504  -1.23405  -1.18460  -1.12705  -1.07537
 Alpha  occ. eigenvalues --   -1.06474  -0.93924  -0.66670  -0.58823  -0.57282
 Alpha  occ. eigenvalues --   -0.56321  -0.51535  -0.50951  -0.48263  -0.48092
 Alpha  occ. eigenvalues --   -0.46022  -0.44349  -0.41725  -0.40919  -0.36192
 Alpha  occ. eigenvalues --   -0.35841  -0.25938
 Alpha virt. eigenvalues --   -0.22514  -0.20428  -0.15456  -0.14110  -0.13653
 Alpha virt. eigenvalues --   -0.12737  -0.11643  -0.11258  -0.11008  -0.09490
 Alpha virt. eigenvalues --   -0.08890  -0.07550  -0.07208  -0.06200  -0.05491

 Mulliken atomic charges:
              1
     1  Ca   1.206038
     2  O   -0.516370
     3  O   -0.440618
     4  O   -0.734679
     5  P    1.672999
     6  Ca   0.815098
     7  O   -0.927746
     8  Ca   0.909316
     9  O   -0.984037
 Sum of Mulliken charges=   1.00000

 Dipole moment (field-independent basis, Debye):
    X=    -1.6981    Y=     6.7341    Z=    -0.4452  Tot=     6.9592
 Quadrupole moment (field-independent basis, Debye-Ang):
   XX=   -17.9311   YY=   -74.3198   ZZ=   -91.8196
   XY=   -27.6751   XZ=     3.9673   YZ=     0.7119

 Normal termination of Gaussian 03 at Fri Jun 12 17:58:22 2015.
