 Gaussian 03, Revision E.01,
 Gaussian 03:  EM64T-G03RevE.01 11-Sep-2007

 ----------------------------------------------------
 # b3lyp/6-31+G(d,p) int=ultrafine pop=(ReadRadii,MK)
 ----------------------------------------------------

 ----------------------------------------
 mol_16.4.52.pdb_plusQ.out.z51603.zip.xyz
 ----------------------------------------
 Symbolic Z-matrix:
 Charge =  1 Multiplicity = 1

                         Standard orientation:
 ---------------------------------------------------------------------
 Center     Atomic     Atomic              Coordinates (Angstroms)
 Number     Number      Type              X           Y           Z
 ---------------------------------------------------------------------
    1          8             0        0.149279   -1.956540    0.769500
    2          8             0        0.149279   -1.956540   -0.769500
    3         15             0        0.959659   -0.519860    0.000000
    4         20             0        0.729229    2.282540    0.000000
    5          8             0        0.149279    0.472360    1.186470
    6         20             0       -1.687821   -0.705300    0.000000
    7          8             0        0.149279    0.472360   -1.186470
 ---------------------------------------------------------------------

 SCF Done:  E(RB+HF-LYP) =  -1997.18931650     A.U. after    8 cycles

 The electronic state is 1-A'.
 Alpha  occ. eigenvalues -- -145.57758-145.55591 -77.28915 -19.29094 -19.29088
 Alpha  occ. eigenvalues --  -19.22286 -19.22286 -15.64587 -15.62293 -12.77833
 Alpha  occ. eigenvalues --  -12.77730 -12.77709 -12.75498 -12.75473 -12.75472
 Alpha  occ. eigenvalues --   -6.73746  -4.90165  -4.89946  -4.89655  -2.01609
 Alpha  occ. eigenvalues --   -1.99196  -1.29381  -1.28916  -1.28683  -1.27728
 Alpha  occ. eigenvalues --   -1.26433  -1.26306  -1.17965  -1.05061  -1.00005
 Alpha  occ. eigenvalues --   -0.92767  -0.67514  -0.54381  -0.53338  -0.52311
 Alpha  occ. eigenvalues --   -0.49823  -0.45969  -0.42496  -0.42317  -0.39052
 Alpha  occ. eigenvalues --   -0.35932  -0.35386  -0.35300
 Alpha virt. eigenvalues --   -0.24393  -0.21699  -0.16289  -0.14565  -0.13547
 Alpha virt. eigenvalues --   -0.13124  -0.10912  -0.10475  -0.08291  -0.08174
 Alpha virt. eigenvalues --   -0.07665  -0.06190  -0.05663  -0.05527  -0.05130

 Mulliken atomic charges:
              1
     1  O   -0.424870
     2  O   -0.424870
     3  P    0.700098
     4  Ca   1.475915
     5  O   -0.878110
     6  Ca   1.429946
     7  O   -0.878110
 Sum of Mulliken charges=   1.00000

 Dipole moment (field-independent basis, Debye):
    X=    -6.7730    Y=    12.8292    Z=     0.0000  Tot=    14.5073
 Quadrupole moment (field-independent basis, Debye-Ang):
   XX=   -29.8713   YY=   -25.3981   ZZ=   -70.5934
   XY=    21.9759   XZ=     0.0000   YZ=     0.0000

 Normal termination of Gaussian 03 at Fri Jun 12 17:48:42 2015.
