 Gaussian 03, Revision E.01,
 Gaussian 03:  EM64T-G03RevE.01 11-Sep-2007

 ----------------------------------------------------
 # b3lyp/6-31+G(d,p) int=ultrafine pop=(ReadRadii,MK)
 ----------------------------------------------------

 --------------------------------------
 mol_17.26.41.pdbc_plusQ.z58452.zip.xyz
 --------------------------------------
 Symbolic Z-matrix:
 Charge =  1 Multiplicity = 1

                         Standard orientation:
 ---------------------------------------------------------------------
 Center     Atomic     Atomic              Coordinates (Angstroms)
 Number     Number      Type              X           Y           Z
 ---------------------------------------------------------------------
    1          8             0       -0.072993   -1.563659   -0.734151
    2          8             0       -2.811419    0.819324   -0.554421
    3          8             0       -0.522071   -0.169689    1.303959
    4         15             0        0.574469   -0.600680    0.280879
    5          8             0        1.953508   -1.098202    0.829129
    6         20             0       -1.116698    1.881802    0.176299
    7          8             0        1.006321    0.833819   -0.443551
    8         20             0       -2.318812   -1.232026   -0.177431
    9         20             0        3.183320    0.272096   -0.369911
 ---------------------------------------------------------------------

 SCF Done:  E(RB+HF-LYP) =  -2750.26899673     A.U. after    8 cycles

 The electronic state is 1-A.
 Alpha  occ. eigenvalues -- -145.53866-145.50374-145.49131 -77.31100 -19.24073
 Alpha  occ. eigenvalues --  -19.23758 -19.22030 -19.20899 -19.18590 -15.60749
 Alpha  occ. eigenvalues --  -15.57193 -15.55988 -12.73977 -12.73906 -12.73871
 Alpha  occ. eigenvalues --  -12.70422 -12.70406 -12.70282 -12.69214 -12.69187
 Alpha  occ. eigenvalues --  -12.69077  -6.75469  -4.91911  -4.91792  -4.91749
 Alpha  occ. eigenvalues --   -1.97902  -1.94308  -1.93227  -1.25675  -1.25486
 Alpha  occ. eigenvalues --   -1.25179  -1.22351  -1.21904  -1.21597  -1.21000
 Alpha  occ. eigenvalues --   -1.20844  -1.20349  -1.12682  -1.04548  -1.03713
 Alpha  occ. eigenvalues --   -1.02513  -0.91633  -0.62599  -0.54022  -0.53471
 Alpha  occ. eigenvalues --   -0.52647  -0.46944  -0.44746  -0.44042  -0.42407
 Alpha  occ. eigenvalues --   -0.41947  -0.39391  -0.38036  -0.37125  -0.36589
 Alpha  occ. eigenvalues --   -0.34897  -0.34627
 Alpha virt. eigenvalues --   -0.21755  -0.18351  -0.17059  -0.12957  -0.12128
 Alpha virt. eigenvalues --   -0.10102  -0.10040  -0.09182  -0.08498  -0.07818
 Alpha virt. eigenvalues --   -0.07106  -0.06542  -0.05572  -0.05318  -0.04890

 Mulliken atomic charges:
              1
     1  O   -0.890753
     2  O   -1.346011
     3  O   -1.038960
     4  P    1.800459
     5  O   -0.881527
     6  Ca   1.456088
     7  O   -1.123424
     8  Ca   1.436638
     9  Ca   1.587490
 Sum of Mulliken charges=   1.00000

 Dipole moment (field-independent basis, Debye):
    X=    14.4794    Y=     4.6820    Z=    -0.7239  Tot=    15.2348
 Quadrupole moment (field-independent basis, Debye-Ang):
   XX=   -12.2404   YY=   -49.1996   ZZ=   -83.3020
   XY=    32.0611   XZ=   -20.4340   YZ=     7.3579

 Normal termination of Gaussian 03 at Fri Jun 12 18:01:00 2015.
