 Gaussian 03, Revision E.01,
 Gaussian 03:  EM64T-G03RevE.01 11-Sep-2007

 ----------------------------------------------------
 # b3lyp/6-31+G(d,p) int=ultrafine pop=(ReadRadii,MK)
 ----------------------------------------------------

 ----------------------------------------
 mol_17.27.11.pdbccc_plusQ.z58478.zip.xyz
 ----------------------------------------
 Symbolic Z-matrix:
 Charge =  1 Multiplicity = 1

                         Standard orientation:
 ---------------------------------------------------------------------
 Center     Atomic     Atomic              Coordinates (Angstroms)
 Number     Number      Type              X           Y           Z
 ---------------------------------------------------------------------
    1          8             0        1.349644   -2.040675   -0.875979
    2          8             0        1.872818    1.655793   -0.075409
    3         20             0        2.505301   -0.280100    0.428501
    4         15             0       -0.000155   -1.822240   -0.262359
    5          8             0       -0.000123   -1.173150    1.110221
    6          8             0       -1.872532    1.656097   -0.075409
    7         20             0        0.000222    2.703440   -0.343199
    8         20             0       -2.505339   -0.279700    0.428501
    9          8             0       -1.349976   -2.040465   -0.876009
 ---------------------------------------------------------------------

 SCF Done:  E(RB+HF-LYP) =  -2750.22298378     A.U. after    8 cycles

 The electronic state is 1-A.
 Alpha  occ. eigenvalues -- -145.51147-145.51147-145.43676 -77.37950 -19.31802
 Alpha  occ. eigenvalues --  -19.31801 -19.31594 -19.12683 -19.12683 -15.57957
 Alpha  occ. eigenvalues --  -15.57956 -15.50697 -12.71187 -12.71186 -12.71179
 Alpha  occ. eigenvalues --  -12.71178 -12.71032 -12.71032 -12.63953 -12.63899
 Alpha  occ. eigenvalues --  -12.63700  -6.83312  -4.99892  -4.99419  -4.99410
 Alpha  occ. eigenvalues --   -1.95027  -1.95026  -1.88166  -1.23738  -1.22876
 Alpha  occ. eigenvalues --   -1.22648  -1.22616  -1.21973  -1.21875  -1.20321
 Alpha  occ. eigenvalues --   -1.16186  -1.15877  -1.15012  -1.14121  -1.13059
 Alpha  occ. eigenvalues --   -0.87040  -0.86502  -0.68595  -0.59985  -0.59852
 Alpha  occ. eigenvalues --   -0.58981  -0.53314  -0.50626  -0.49453  -0.48596
 Alpha  occ. eigenvalues --   -0.45912  -0.33877  -0.32302  -0.31523  -0.31032
 Alpha  occ. eigenvalues --   -0.30855  -0.30411
 Alpha virt. eigenvalues --   -0.21137  -0.18319  -0.17578  -0.15788  -0.14736
 Alpha virt. eigenvalues --   -0.11197  -0.10091  -0.09691  -0.09149  -0.08110
 Alpha virt. eigenvalues --   -0.07179  -0.06657  -0.06625  -0.06096  -0.05222

 Mulliken atomic charges:
              1
     1  O   -0.610679
     2  O   -1.209880
     3  Ca   1.410081
     4  P    1.079647
     5  O   -0.658698
     6  O   -1.209882
     7  Ca   1.400004
     8  Ca   1.410083
     9  O   -0.610676
 Sum of Mulliken charges=   1.00000

 Dipole moment (field-independent basis, Debye):
    X=     0.0000    Y=    -0.7395    Z=     4.5989  Tot=     4.6579
 Quadrupole moment (field-independent basis, Debye-Ang):
   XX=   -34.9024   YY=   -60.0888   ZZ=   -77.3299
   XY=    -0.0021   XZ=    -0.0009   YZ=   -11.0527

 Normal termination of Gaussian 03 at Fri Jun 12 18:02:42 2015.
