 Gaussian 03, Revision E.01,
 Gaussian 03:  EM64T-G03RevE.01 11-Sep-2007

 ----------------------------------------------------
 # b3lyp/6-31+G(d,p) int=ultrafine pop=(ReadRadii,MK)
 ----------------------------------------------------

 -------------------------------------
 mol_17.28.38.pdb_plusQ.z58561.zip.xyz
 -------------------------------------
 Symbolic Z-matrix:
 Charge =  1 Multiplicity = 1

                         Standard orientation:
 ---------------------------------------------------------------------
 Center     Atomic     Atomic              Coordinates (Angstroms)
 Number     Number      Type              X           Y           Z
 ---------------------------------------------------------------------
    1          8             0       -1.725849   -1.491330   -0.000178
    2          8             0        0.564800    1.106040   -0.000058
    3         20             0        2.818360    0.993610   -0.000048
    4          8             0        2.712981   -1.088380   -0.784828
    5          8             0        2.712901   -1.088250    0.785032
    6         20             0        0.598041   -1.308290    0.000012
    7         15             0       -3.194419   -1.029100   -0.000018
    8         20             0       -1.432420    1.902370   -0.000018
    9          8             0       -3.235249    0.522260    0.000202
 ---------------------------------------------------------------------

 SCF Done:  E(RB+HF-LYP) =  -2750.20951963     A.U. after    8 cycles

 The electronic state is 1-A.
 Alpha  occ. eigenvalues -- -145.53395-145.48024-145.44978 -77.30022 -19.27965
 Alpha  occ. eigenvalues --  -19.27483 -19.19914 -19.19909 -19.17879 -15.60297
 Alpha  occ. eigenvalues --  -15.54890 -15.51856 -12.73553 -12.73506 -12.73334
 Alpha  occ. eigenvalues --  -12.68098 -12.68071 -12.67999 -12.65099 -12.65062
 Alpha  occ. eigenvalues --  -12.64932  -6.75541  -4.91985  -4.91758  -4.91322
 Alpha  occ. eigenvalues --   -1.97519  -1.92194  -1.89239  -1.25377  -1.25257
 Alpha  occ. eigenvalues --   -1.24382  -1.20508  -1.19792  -1.19393  -1.17219
 Alpha  occ. eigenvalues --   -1.17082  -1.16764  -1.13770  -1.08259  -1.02445
 Alpha  occ. eigenvalues --   -0.92461  -0.83749  -0.67358  -0.56793  -0.52842
 Alpha  occ. eigenvalues --   -0.52588  -0.45479  -0.43602  -0.43400  -0.41978
 Alpha  occ. eigenvalues --   -0.41117  -0.40750  -0.37990  -0.37312  -0.36418
 Alpha  occ. eigenvalues --   -0.30524  -0.28910
 Alpha virt. eigenvalues --   -0.21329  -0.19765  -0.18064  -0.13534  -0.13441
 Alpha virt. eigenvalues --   -0.11691  -0.10903  -0.10463  -0.08649  -0.08278
 Alpha virt. eigenvalues --   -0.07167  -0.06873  -0.06457  -0.06203  -0.05657

 Mulliken atomic charges:
              1
     1  O   -0.677417
     2  O   -1.348024
     3  Ca   1.443469
     4  O   -0.651203
     5  O   -0.651192
     6  Ca   1.406387
     7  P    0.665893
     8  Ca   1.527485
     9  O   -0.715398
 Sum of Mulliken charges=   1.00000

 Dipole moment (field-independent basis, Debye):
    X=    -1.2580    Y=    12.1921    Z=    -0.0008  Tot=    12.2569
 Quadrupole moment (field-independent basis, Debye-Ang):
   XX=   -63.3318   YY=   -46.1957   ZZ=   -77.2340
   XY=    15.9577   XZ=    -0.0009   YZ=    -0.0014

 Normal termination of Gaussian 03 at Fri Jun 12 18:09:57 2015.
