 Gaussian 03, Revision E.01,
 Gaussian 03:  EM64T-G03RevE.01 11-Sep-2007

 ----------------------------------------------------
 # b3lyp/6-31+G(d,p) int=ultrafine pop=(ReadRadii,MK)
 ----------------------------------------------------

 ----------------------------------------
 mol_17.28.40.pdbccc_plusQ.z58564.zip.xyz
 ----------------------------------------
 Symbolic Z-matrix:
 Charge =  1 Multiplicity = 1

                         Standard orientation:
 ---------------------------------------------------------------------
 Center     Atomic     Atomic              Coordinates (Angstroms)
 Number     Number      Type              X           Y           Z
 ---------------------------------------------------------------------
    1          8             0       -0.170849   -1.667591   -0.450559
    2          8             0       -1.170029   -1.075241   -1.376249
    3          8             0       -2.203520   -0.425882   -0.552429
    4         20             0       -1.123130   -0.848301    1.504531
    5         15             0        1.232469    1.258630    1.064861
    6          8             0       -0.426301    1.307809    1.149401
    7         20             0        2.078981   -1.124159   -0.426409
    8          8             0        1.384719    1.065750   -0.611009
    9         20             0       -0.845811    1.346549   -1.140429
 ---------------------------------------------------------------------

 SCF Done:  E(RB+HF-LYP) =  -2750.06552079     A.U. after   10 cycles

 The electronic state is 1-A.
 Alpha  occ. eigenvalues -- -145.51835-145.51827-145.51739 -77.23317 -19.36966
 Alpha  occ. eigenvalues --  -19.27862 -19.27729 -19.23505 -19.23380 -15.58639
 Alpha  occ. eigenvalues --  -15.58639 -15.58627 -12.71854 -12.71852 -12.71849
 Alpha  occ. eigenvalues --  -12.71820 -12.71809 -12.71793 -12.71785 -12.71772
 Alpha  occ. eigenvalues --  -12.71746  -6.69078  -4.85482  -4.85204  -4.84907
 Alpha  occ. eigenvalues --   -1.95829  -1.95789  -1.95772  -1.25743  -1.23791
 Alpha  occ. eigenvalues --   -1.23502  -1.23458  -1.23232  -1.23137  -1.23089
 Alpha  occ. eigenvalues --   -1.22998  -1.22896  -1.20164  -1.07021  -1.03904
 Alpha  occ. eigenvalues --   -1.02288  -0.88335  -0.64244  -0.59044  -0.56386
 Alpha  occ. eigenvalues --   -0.54740  -0.51142  -0.49681  -0.47843  -0.43462
 Alpha  occ. eigenvalues --   -0.42567  -0.42152  -0.40920  -0.39750  -0.38784
 Alpha  occ. eigenvalues --   -0.34849  -0.25896
 Alpha virt. eigenvalues --   -0.20129  -0.19364  -0.18738  -0.14837  -0.13334
 Alpha virt. eigenvalues --   -0.12108  -0.11234  -0.10594  -0.09878  -0.09210
 Alpha virt. eigenvalues --   -0.08496  -0.07577  -0.07102  -0.06789  -0.06125

 Mulliken atomic charges:
              1
     1  O   -0.613870
     2  O   -0.040984
     3  O   -0.635578
     4  Ca   1.429043
     5  P   -0.175730
     6  O   -0.779510
     7  Ca   1.068926
     8  O   -0.746860
     9  Ca   1.494564
 Sum of Mulliken charges=   1.00000

 Dipole moment (field-independent basis, Debye):
    X=    -0.3540    Y=    -1.4525    Z=    -1.3410  Tot=     2.0083
 Quadrupole moment (field-independent basis, Debye-Ang):
   XX=   -64.3588   YY=   -72.1644   ZZ=   -62.2343
   XY=   -19.5505   XZ=   -15.6672   YZ=   -21.4885

 Normal termination of Gaussian 03 at Fri Jun 12 18:10:37 2015.
