 Gaussian 03, Revision E.01,
 Gaussian 03:  EM64T-G03RevE.01 11-Sep-2007

 ----------------------------------------------------
 # b3lyp/6-31+G(d,p) int=ultrafine pop=(ReadRadii,MK)
 ----------------------------------------------------

 ----------------------------------------
 mol_17.29.52.pdbccc_plusQ.z58635.zip.xyz
 ----------------------------------------
 Symbolic Z-matrix:
 Charge =  1 Multiplicity = 1

                         Standard orientation:
 ---------------------------------------------------------------------
 Center     Atomic     Atomic              Coordinates (Angstroms)
 Number     Number      Type              X           Y           Z
 ---------------------------------------------------------------------
    1          8             0        3.957879   -1.236092   -0.035919
    2         15             0        4.846390    0.008068   -0.001129
    3          8             0        6.317140    0.019677   -0.001749
    4          8             0        3.938310    1.237958    0.034261
    5         20             0        1.914140   -0.015311    0.000341
    6         20             0       -1.898520   -0.009259    0.005351
    7          8             0       -4.047000    0.054781   -0.786399
    8          8             0       -4.051010   -0.055159    0.787621
    9         20             0       -6.096540    0.010052   -0.003969
 ---------------------------------------------------------------------

 SCF Done:  E(RB+HF-LYP) =  -2750.08564560     A.U. after   13 cycles

 The electronic state is 1-A.
 Alpha  occ. eigenvalues -- -145.57629-145.50444-145.49199 -77.30285 -19.26771
 Alpha  occ. eigenvalues --  -19.26733 -19.24489 -19.24486 -19.23249 -15.64455
 Alpha  occ. eigenvalues --  -15.57432 -15.56238 -12.77696 -12.77636 -12.77559
 Alpha  occ. eigenvalues --  -12.70670 -12.70607 -12.70493 -12.69468 -12.69424
 Alpha  occ. eigenvalues --  -12.69277  -6.75652  -4.92247  -4.91764  -4.91723
 Alpha  occ. eigenvalues --   -2.01384  -1.94622  -1.93541  -1.28972  -1.28941
 Alpha  occ. eigenvalues --   -1.28674  -1.22376  -1.22106  -1.22035  -1.21288
 Alpha  occ. eigenvalues --   -1.21095  -1.21080  -1.13349  -1.09159  -1.06045
 Alpha  occ. eigenvalues --   -1.05555  -0.90620  -0.61206  -0.52920  -0.51582
 Alpha  occ. eigenvalues --   -0.51280  -0.49971  -0.49352  -0.47129  -0.45529
 Alpha  occ. eigenvalues --   -0.41976  -0.41711  -0.40962  -0.38964  -0.38005
 Alpha  occ. eigenvalues --   -0.34760  -0.27719
 Alpha virt. eigenvalues --   -0.25120  -0.16335  -0.16074  -0.15534  -0.14479
 Alpha virt. eigenvalues --   -0.14301  -0.13092  -0.11658  -0.11625  -0.09620
 Alpha virt. eigenvalues --   -0.08642  -0.07739  -0.07703  -0.07518  -0.05921

 Mulliken atomic charges:
              1
     1  O   -0.666510
     2  P    0.997301
     3  O   -0.606597
     4  O   -0.667360
     5  Ca   0.457157
     6  Ca   1.137407
     7  O   -0.651356
     8  O   -0.650678
     9  Ca   1.650637
 Sum of Mulliken charges=   1.00000

 Dipole moment (field-independent basis, Debye):
    X=   -28.8874    Y=    -0.0225    Z=    -0.0053  Tot=    28.8874
 Quadrupole moment (field-independent basis, Debye-Ang):
   XX=    50.4720   YY=   -90.4068   ZZ=   -83.3247
   XY=    -0.5381   XZ=     0.1373   YZ=    -0.0387

 Normal termination of Gaussian 03 at Fri Jun 12 18:13:13 2015.
