 Gaussian 03, Revision E.01,
 Gaussian 03:  EM64T-G03RevE.01 11-Sep-2007

 ----------------------------------------------------
 # b3lyp/6-31+G(d,p) int=ultrafine pop=(ReadRadii,MK)
 ----------------------------------------------------

 ----------------------------------------
 mol_17.24.36.pdbccc_plusQ.z58289.zip.xyz
 ----------------------------------------
 Symbolic Z-matrix:
 Charge =  1 Multiplicity = 1

                         Standard orientation:
 ---------------------------------------------------------------------
 Center     Atomic     Atomic              Coordinates (Angstroms)
 Number     Number      Type              X           Y           Z
 ---------------------------------------------------------------------
    1          8             0       -2.543531   -0.001029    1.244360
    2         15             0       -0.972971    0.000060    1.110440
    3          8             0       -0.756481   -1.249910   -0.034430
    4          8             0       -0.758511    1.250360   -0.034500
    5         20             0       -2.534871   -0.000779   -1.021390
    6         20             0        1.442369   -1.800010   -0.043720
    7          8             0        2.379049    0.000650   -1.016070
    8          8             0        2.634529    0.000890    0.530910
    9         20             0        1.440209    1.800360   -0.043830
 ---------------------------------------------------------------------

 SCF Done:  E(RB+HF-LYP) =  -2750.19820917     A.U. after    7 cycles

 The electronic state is 1-A.
 Alpha  occ. eigenvalues -- -145.52891-145.49505-145.49499 -77.24305 -19.22798
 Alpha  occ. eigenvalues --  -19.22510 -19.21330 -19.21328 -19.19024 -15.59684
 Alpha  occ. eigenvalues --  -15.56367 -15.56362 -12.72866 -12.72862 -12.72849
 Alpha  occ. eigenvalues --  -12.69594 -12.69588 -12.69568 -12.69563 -12.69457
 Alpha  occ. eigenvalues --  -12.69452  -6.69593  -4.85974  -4.85898  -4.85457
 Alpha  occ. eigenvalues --   -1.96718  -1.93612  -1.93577  -1.24680  -1.23984
 Alpha  occ. eigenvalues --   -1.23944  -1.22278  -1.21282  -1.21230  -1.21054
 Alpha  occ. eigenvalues --   -1.21029  -1.20595  -1.06716  -1.05363  -0.99868
 Alpha  occ. eigenvalues --   -0.99600  -0.86452  -0.61786  -0.49598  -0.49237
 Alpha  occ. eigenvalues --   -0.48399  -0.46093  -0.44984  -0.43565  -0.42569
 Alpha  occ. eigenvalues --   -0.41981  -0.37840  -0.37837  -0.34591  -0.33873
 Alpha  occ. eigenvalues --   -0.32217  -0.31075
 Alpha virt. eigenvalues --   -0.20492  -0.17973  -0.17401  -0.13049  -0.12114
 Alpha virt. eigenvalues --   -0.11135  -0.09669  -0.08662  -0.08333  -0.07574
 Alpha virt. eigenvalues --   -0.06948  -0.06822  -0.06580  -0.06267  -0.05323

 Mulliken atomic charges:
              1
     1  O   -0.870128
     2  P    0.804143
     3  O   -0.971944
     4  O   -0.971879
     5  Ca   1.357414
     6  Ca   1.485212
     7  O   -0.659691
     8  O   -0.658156
     9  Ca   1.485029
 Sum of Mulliken charges=   1.00000

 Dipole moment (field-independent basis, Debye):
    X=    -1.3355    Y=    -0.0076    Z=    -8.1445  Tot=     8.2533
 Quadrupole moment (field-independent basis, Debye-Ang):
   XX=   -62.1177   YY=   -36.3548   ZZ=   -75.9300
   XY=    -0.0230   XZ=    28.8207   YZ=     0.0085

 Normal termination of Gaussian 03 at Fri Jun 12 17:55:26 2015.
