 Gaussian 03, Revision E.01,
 Gaussian 03:  EM64T-G03RevE.01 11-Sep-2007

 ----------------------------------------------------
 # b3lyp/6-31+G(d,p) int=ultrafine pop=(ReadRadii,MK)
 ----------------------------------------------------

 ----------------------------------------
 mol_16.4.5.pdbc_plusQ.out.z51610.zip.xyz
 ----------------------------------------
 Symbolic Z-matrix:
 Charge =  1 Multiplicity = 1

                         Standard orientation:
 ---------------------------------------------------------------------
 Center     Atomic     Atomic              Coordinates (Angstroms)
 Number     Number      Type              X           Y           Z
 ---------------------------------------------------------------------
    1          8             0        1.491291   -1.192778   -0.000649
    2         15             0        2.505348    0.004424    0.000291
    3         20             0        0.006584    1.816399   -0.000339
    4          8             0       -1.166142    0.220426    1.202211
    5          8             0       -2.037252    0.417274    0.000841
    6          8             0       -1.167442    0.220516   -1.201829
    7         20             0       -0.733778   -1.685893   -0.000109
 ---------------------------------------------------------------------

 SCF Done:  E(RB+HF-LYP) =  -1997.13669052     A.U. after    9 cycles

 The electronic state is 1-A.
 Alpha  occ. eigenvalues -- -145.55218-145.54331 -77.26595 -19.38798 -19.29874
 Alpha  occ. eigenvalues --  -19.29584 -19.29581 -15.61996 -15.61198 -12.75194
 Alpha  occ. eigenvalues --  -12.75184 -12.75156 -12.74403 -12.74383 -12.74321
 Alpha  occ. eigenvalues --   -6.72853  -4.89557  -4.89019  -4.88254  -1.99045
 Alpha  occ. eigenvalues --   -1.98288  -1.29133  -1.26540  -1.26466  -1.25892
 Alpha  occ. eigenvalues --   -1.25688  -1.25593  -1.21278  -1.11805  -1.05520
 Alpha  occ. eigenvalues --   -0.90125  -0.68263  -0.59418  -0.57541  -0.57091
 Alpha  occ. eigenvalues --   -0.52161  -0.50434  -0.49932  -0.45778  -0.43180
 Alpha  occ. eigenvalues --   -0.41416  -0.37827  -0.31027
 Alpha virt. eigenvalues --   -0.25070  -0.21196  -0.20230  -0.15657  -0.13927
 Alpha virt. eigenvalues --   -0.12843  -0.12012  -0.11380  -0.10018  -0.09130
 Alpha virt. eigenvalues --   -0.08036  -0.07151  -0.06853  -0.05850  -0.05616

 Mulliken atomic charges:
              1
     1  O   -0.566410
     2  P    0.123900
     3  Ca   1.224730
     4  O   -0.600918
     5  O   -0.101154
     6  O   -0.600908
     7  Ca   1.520760
 Sum of Mulliken charges=   1.00000

 Dipole moment (field-independent basis, Debye):
    X=    -1.2178    Y=    -0.2340    Z=    -0.0026  Tot=     1.2401
 Quadrupole moment (field-independent basis, Debye-Ang):
   XX=   -67.8303   YY=   -15.9600   ZZ=   -63.7516
   XY=    14.3724   XZ=    -0.0016   YZ=    -0.0051

 Normal termination of Gaussian 03 at Fri Jun 12 17:49:10 2015.
