 Gaussian 03, Revision E.01,
 Gaussian 03:  EM64T-G03RevE.01 11-Sep-2007

 ----------------------------------------------------
 # b3lyp/6-31+G(d,p) int=ultrafine pop=(ReadRadii,MK)
 ----------------------------------------------------

 ---------------------------------------
 mol_17.24.16.pdbcc_plusQ.z58271.zip.xyz
 ---------------------------------------
 Symbolic Z-matrix:
 Charge =  1 Multiplicity = 1

                         Standard orientation:
 ---------------------------------------------------------------------
 Center     Atomic     Atomic              Coordinates (Angstroms)
 Number     Number      Type              X           Y           Z
 ---------------------------------------------------------------------
    1          8             0       -0.648759    0.845081   -0.285618
    2          8             0        2.966270    0.762485   -0.080768
    3         20             0        2.686847   -1.324605   -0.355218
    4         20             0        1.277553    1.987718    0.301472
    5         20             0       -2.783590    0.362195   -0.919708
    6         15             0       -0.416142   -0.530209    0.717392
    7          8             0        0.468466   -1.517851   -0.134888
    8          8             0       -1.944623   -1.258697    0.459042
    9          8             0       -3.013112   -0.400145    1.130762
 ---------------------------------------------------------------------

 SCF Done:  E(RB+HF-LYP) =  -2750.12385946     A.U. after    9 cycles

 The electronic state is 1-A.
 Alpha  occ. eigenvalues -- -145.52462-145.49019-145.48651 -77.25669 -19.27823
 Alpha  occ. eigenvalues --  -19.22836 -19.22140 -19.21059 -19.12477 -15.59292
 Alpha  occ. eigenvalues --  -15.55904 -15.55547 -12.72516 -12.72456 -12.72416
 Alpha  occ. eigenvalues --  -12.69154 -12.69099 -12.68959 -12.68797 -12.68719
 Alpha  occ. eigenvalues --  -12.68617  -6.70820  -4.87217  -4.87159  -4.86611
 Alpha  occ. eigenvalues --   -1.96470  -1.93142  -1.92785  -1.24744  -1.23996
 Alpha  occ. eigenvalues --   -1.23682  -1.21015  -1.20802  -1.20626  -1.20376
 Alpha  occ. eigenvalues --   -1.20121  -1.19560  -1.12443  -1.05472  -1.01513
 Alpha  occ. eigenvalues --   -0.89723  -0.86718  -0.63917  -0.53424  -0.51606
 Alpha  occ. eigenvalues --   -0.50595  -0.47029  -0.44589  -0.42847  -0.41261
 Alpha  occ. eigenvalues --   -0.38430  -0.33904  -0.32804  -0.32487  -0.31768
 Alpha  occ. eigenvalues --   -0.30861  -0.30584
 Alpha virt. eigenvalues --   -0.20707  -0.18577  -0.17494  -0.12517  -0.12234
 Alpha virt. eigenvalues --   -0.10368  -0.09895  -0.09384  -0.08640  -0.08230
 Alpha virt. eigenvalues --   -0.07494  -0.07342  -0.07104  -0.05902  -0.05763

 Mulliken atomic charges:
              1
     1  O   -1.039691
     2  O   -1.186996
     3  Ca   1.441213
     4  Ca   1.422745
     5  Ca   1.463899
     6  P    0.813182
     7  O   -0.883397
     8  O   -0.500949
     9  O   -0.530006
 Sum of Mulliken charges=   1.00000

 Dipole moment (field-independent basis, Debye):
    X=     0.3948    Y=     5.2273    Z=    -8.2516  Tot=     9.7760
 Quadrupole moment (field-independent basis, Debye-Ang):
   XX=   -42.2520   YY=   -46.7633   ZZ=   -72.4948
   XY=   -32.6799   XZ=    26.1414   YZ=     7.1153

 Normal termination of Gaussian 03 at Fri Jun 12 17:54:57 2015.
