 Gaussian 03, Revision E.01,
 Gaussian 03:  EM64T-G03RevE.01 11-Sep-2007

 ----------------------------------------------------
 # b3lyp/6-31+G(d,p) int=ultrafine pop=(ReadRadii,MK)
 ----------------------------------------------------

 ------------------------------------------
 mol_17.25.59.pdbccccc_plusQ.z58363.zip.xyz
 ------------------------------------------
 Symbolic Z-matrix:
 Charge =  1 Multiplicity = 1

                         Standard orientation:
 ---------------------------------------------------------------------
 Center     Atomic     Atomic              Coordinates (Angstroms)
 Number     Number      Type              X           Y           Z
 ---------------------------------------------------------------------
    1          8             0        1.877690   -0.731280    0.757550
    2          8             0        1.877140   -0.731880   -0.756070
    3         15             0        3.510781   -0.515160   -0.000160
    4         20             0        1.527811    1.644920   -0.000120
    5          8             0       -0.570299    1.147330   -0.000640
    6         20             0       -0.520840   -1.233050   -0.000580
    7          8             0       -2.632000   -1.104460    0.784860
    8          8             0       -2.632650   -1.104640   -0.784170
    9         20             0       -2.808009    0.984470    0.000210
 ---------------------------------------------------------------------

 SCF Done:  E(RB+HF-LYP) =  -2749.99077340     A.U. after    9 cycles

 The electronic state is 1-A.
 Alpha  occ. eigenvalues -- -145.52723-145.47800-145.46731 -77.27511 -19.38411
 Alpha  occ. eigenvalues --  -19.38402 -19.20067 -19.20062 -19.16837 -15.59599
 Alpha  occ. eigenvalues --  -15.54665 -15.53533 -12.72846 -12.72816 -12.72649
 Alpha  occ. eigenvalues --  -12.67875 -12.67845 -12.67775 -12.66759 -12.66733
 Alpha  occ. eigenvalues --  -12.66650  -6.73638  -4.90198  -4.90133  -4.88814
 Alpha  occ. eigenvalues --   -1.96793  -1.91963  -1.90782  -1.28740  -1.24572
 Alpha  occ. eigenvalues --   -1.23835  -1.23444  -1.20452  -1.19570  -1.19177
 Alpha  occ. eigenvalues --   -1.18437  -1.18105  -1.18019  -1.02707  -1.01282
 Alpha  occ. eigenvalues --   -0.91658  -0.83884  -0.74685  -0.61495  -0.60217
 Alpha  occ. eigenvalues --   -0.53341  -0.51943  -0.45047  -0.43537  -0.41980
 Alpha  occ. eigenvalues --   -0.41145  -0.37550  -0.36580  -0.35579  -0.33112
 Alpha  occ. eigenvalues --   -0.30662  -0.29009
 Alpha virt. eigenvalues --   -0.22610  -0.20550  -0.18824  -0.17714  -0.14989
 Alpha virt. eigenvalues --   -0.12592  -0.11700  -0.11122  -0.10791  -0.09919
 Alpha virt. eigenvalues --   -0.08050  -0.08047  -0.07018  -0.06767  -0.05889

 Mulliken atomic charges:
              1
     1  O   -0.361564
     2  O   -0.361458
     3  P    0.121242
     4  Ca   1.390609
     5  O   -1.317267
     6  Ca   1.382413
     7  O   -0.649534
     8  O   -0.649606
     9  Ca   1.445166
 Sum of Mulliken charges=   1.00000

 Dipole moment (field-independent basis, Debye):
    X=     2.6267    Y=    10.6447    Z=    -0.0033  Tot=    10.9640
 Quadrupole moment (field-independent basis, Debye-Ang):
   XX=   -54.2095   YY=   -55.6093   ZZ=   -79.2561
   XY=   -13.9523   XZ=    -0.0056   YZ=     0.0160

 Normal termination of Gaussian 03 at Fri Jun 12 17:59:14 2015.
