 Gaussian 03, Revision E.01,
 Gaussian 03:  EM64T-G03RevE.01 11-Sep-2007

 ----------------------------------------------------
 # b3lyp/6-31+G(d,p) int=ultrafine pop=(ReadRadii,MK)
 ----------------------------------------------------

 ----------------------------------------
 mol_17.22.50.pdbccc_plusQ.z58200.zip.xyz
 ----------------------------------------
 Symbolic Z-matrix:
 Charge =  1 Multiplicity = 1

                         Standard orientation:
 ---------------------------------------------------------------------
 Center     Atomic     Atomic              Coordinates (Angstroms)
 Number     Number      Type              X           Y           Z
 ---------------------------------------------------------------------
    1          8             0       -1.238117    1.284392   -0.440211
    2         15             0       -1.064549    0.000332   -1.531381
    3         20             0       -1.626309   -0.002407    1.389809
    4          8             0        0.590741    0.002049   -1.657111
    5          8             0        2.067351    0.001137    1.104419
    6          8             0        0.607781   -0.001171    1.523329
    7         20             0        1.052094    1.672628   -0.136981
    8         20             0        1.055908   -1.670722   -0.139411
    9          8             0       -1.235961   -1.285778   -0.442631
 ---------------------------------------------------------------------

 SCF Done:  E(RB+HF-LYP) =  -2750.24881748     A.U. after    7 cycles

 The electronic state is 1-A.
 Alpha  occ. eigenvalues -- -145.52387-145.50188-145.50175 -77.25161 -19.25912
 Alpha  occ. eigenvalues --  -19.25460 -19.21791 -19.21789 -19.21342 -15.59145
 Alpha  occ. eigenvalues --  -15.56986 -15.56975 -12.72333 -12.72329 -12.72303
 Alpha  occ. eigenvalues --  -12.70195 -12.70186 -12.70184 -12.70176 -12.70107
 Alpha  occ. eigenvalues --  -12.70096  -6.70249  -4.86603  -4.86594  -4.86034
 Alpha  occ. eigenvalues --   -1.96323  -1.94234  -1.94168  -1.24347  -1.23878
 Alpha  occ. eigenvalues --   -1.23782  -1.22784  -1.22080  -1.21722  -1.21646
 Alpha  occ. eigenvalues --   -1.21527  -1.21228  -1.10034  -1.07331  -1.00859
 Alpha  occ. eigenvalues --   -1.00735  -0.89073  -0.63099  -0.51342  -0.51083
 Alpha  occ. eigenvalues --   -0.50982  -0.49235  -0.48447  -0.46048  -0.43798
 Alpha  occ. eigenvalues --   -0.43561  -0.38837  -0.38649  -0.38616  -0.35296
 Alpha  occ. eigenvalues --   -0.33987  -0.31705
 Alpha virt. eigenvalues --   -0.20301  -0.18389  -0.17632  -0.12783  -0.12604
 Alpha virt. eigenvalues --   -0.10901  -0.09919  -0.09096  -0.08255  -0.07948
 Alpha virt. eigenvalues --   -0.07350  -0.06562  -0.06018  -0.05817  -0.04927

 Mulliken atomic charges:
              1
     1  O   -1.044055
     2  P    1.083167
     3  Ca   1.483144
     4  O   -1.034719
     5  O   -0.643314
     6  O   -0.725401
     7  Ca   1.462350
     8  Ca   1.462722
     9  O   -1.043894
 Sum of Mulliken charges=   1.00000

 Dipole moment (field-independent basis, Debye):
    X=     0.9357    Y=    -0.0069    Z=     6.2000  Tot=     6.2702
 Quadrupole moment (field-independent basis, Debye-Ang):
   XX=   -63.7091   YY=   -44.2225   ZZ=   -80.5602
   XY=    -0.0087   XZ=   -28.3223   YZ=     0.0054

 Normal termination of Gaussian 03 at Fri Jun 12 17:51:05 2015.
