 Gaussian 03, Revision E.01,
 Gaussian 03:  EM64T-G03RevE.01 11-Sep-2007

 ----------------------------------------------------
 # b3lyp/6-31+G(d,p) int=ultrafine pop=(ReadRadii,MK)
 ----------------------------------------------------

 ----------------------------------------
 mol_17.27.10.pdbccc_plusQ.z58477.zip.xyz
 ----------------------------------------
 Symbolic Z-matrix:
 Charge =  1 Multiplicity = 1

                         Standard orientation:
 ---------------------------------------------------------------------
 Center     Atomic     Atomic              Coordinates (Angstroms)
 Number     Number      Type              X           Y           Z
 ---------------------------------------------------------------------
    1          8             0       -2.559701    0.085889    0.391079
    2          8             0       -1.258729    0.760784    0.700339
    3         15             0       -0.045002   -0.047690    1.763599
    4          8             0        1.160852    0.882816    1.113259
    5          8             0        0.496739   -0.021331   -1.701241
    6         20             0        0.083075    1.943570   -0.708021
    7         20             0        2.033576   -0.780036   -0.270551
    8         20             0       -1.285705   -1.233166   -0.917891
    9          8             0        0.167854   -1.444660    0.930979
 ---------------------------------------------------------------------

 SCF Done:  E(RB+HF-LYP) =  -2750.19417653     A.U. after    9 cycles

 The electronic state is 1-A.
 Alpha  occ. eigenvalues -- -145.51664-145.51589-145.48708 -77.27293 -19.29095
 Alpha  occ. eigenvalues --  -19.23564 -19.23476 -19.23310 -19.17352 -15.58476
 Alpha  occ. eigenvalues --  -15.58415 -15.55556 -12.71690 -12.71652 -12.71622
 Alpha  occ. eigenvalues --  -12.71604 -12.71587 -12.71542 -12.68784 -12.68750
 Alpha  occ. eigenvalues --  -12.68650  -6.72390  -4.88796  -4.88682  -4.88148
 Alpha  occ. eigenvalues --   -1.95719  -1.95664  -1.92866  -1.23973  -1.23548
 Alpha  occ. eigenvalues --   -1.23407  -1.23057  -1.23025  -1.22523  -1.21066
 Alpha  occ. eigenvalues --   -1.20540  -1.19971  -1.13374  -1.07562  -1.03104
 Alpha  occ. eigenvalues --   -0.92324  -0.90607  -0.65532  -0.55304  -0.53392
 Alpha  occ. eigenvalues --   -0.51717  -0.49579  -0.46911  -0.44119  -0.42322
 Alpha  occ. eigenvalues --   -0.40292  -0.37801  -0.37637  -0.36827  -0.35227
 Alpha  occ. eigenvalues --   -0.33510  -0.32026
 Alpha virt. eigenvalues --   -0.20901  -0.19064  -0.17419  -0.13457  -0.12277
 Alpha virt. eigenvalues --   -0.11625  -0.10497  -0.10039  -0.08916  -0.08220
 Alpha virt. eigenvalues --   -0.07976  -0.06858  -0.06590  -0.06168  -0.05829

 Mulliken atomic charges:
              1
     1  O   -0.569025
     2  O   -0.590168
     3  P    1.101678
     4  O   -1.001342
     5  O   -1.261628
     6  Ca   1.493262
     7  Ca   1.428885
     8  Ca   1.417577
     9  O   -1.019239
 Sum of Mulliken charges=   1.00000

 Dipole moment (field-independent basis, Debye):
    X=     6.9238    Y=    -0.1451    Z=    -8.5452  Tot=    10.9991
 Quadrupole moment (field-independent basis, Debye-Ang):
   XX=   -58.3716   YY=   -40.8378   ZZ=   -88.3434
   XY=     0.3649   XZ=     9.1033   YZ=    -0.3855

 Normal termination of Gaussian 03 at Fri Jun 12 18:02:52 2015.
