 Gaussian 03, Revision E.01,
 Gaussian 03:  EM64T-G03RevE.01 11-Sep-2007

 ----------------------------------------------------
 # b3lyp/6-31+G(d,p) int=ultrafine pop=(ReadRadii,MK)
 ----------------------------------------------------

 ----------------------------------------
 mol_16.4.4.pdbc_plusQ.out.z51600.zip.xyz
 ----------------------------------------
 Symbolic Z-matrix:
 Charge =  1 Multiplicity = 1

                         Standard orientation:
 ---------------------------------------------------------------------
 Center     Atomic     Atomic              Coordinates (Angstroms)
 Number     Number      Type              X           Y           Z
 ---------------------------------------------------------------------
    1          8             0       -1.096258   -3.128151    0.000000
    2         15             0       -0.557128   -1.745261    0.000000
    3          8             0        0.952952   -1.449040    0.000000
    4          8             0        1.102619    2.589970    0.000000
    5          8             0        0.000000    1.572060    0.000000
    6         20             0       -1.986700    0.895069    0.000000
    7         20             0        2.020821    0.579941    0.000000
 ---------------------------------------------------------------------

 SCF Done:  E(RB+HF-LYP) =  -1997.22796471     A.U. after    9 cycles

 The electronic state is 1-A'.
 Alpha  occ. eigenvalues -- -145.60037-145.53016 -77.30228 -19.28768 -19.27068
 Alpha  occ. eigenvalues --  -19.26111 -19.23069 -15.66780 -15.59894 -12.80018
 Alpha  occ. eigenvalues --  -12.79976 -12.79897 -12.73162 -12.73077 -12.72961
 Alpha  occ. eigenvalues --   -6.76017  -4.92497  -4.92183  -4.91907  -2.03642
 Alpha  occ. eigenvalues --   -1.97052  -1.31195  -1.31050  -1.30693  -1.24968
 Alpha  occ. eigenvalues --   -1.24899  -1.24316  -1.14142  -1.09345  -1.09043
 Alpha  occ. eigenvalues --   -0.87275  -0.66652  -0.55279  -0.53410  -0.52653
 Alpha  occ. eigenvalues --   -0.50205  -0.47097  -0.46023  -0.44898  -0.44286
 Alpha  occ. eigenvalues --   -0.40459  -0.33317  -0.31411
 Alpha virt. eigenvalues --   -0.24853  -0.20988  -0.19930  -0.15135  -0.14826
 Alpha virt. eigenvalues --   -0.13070  -0.12161  -0.11094  -0.10142  -0.08495
 Alpha virt. eigenvalues --   -0.06987  -0.06526  -0.06044  -0.05926  -0.05120

 Mulliken atomic charges:
              1
     1  O   -0.530196
     2  P    0.453559
     3  O   -0.585036
     4  O   -0.600629
     5  O   -0.644064
     6  Ca   1.446579
     7  Ca   1.459787
 Sum of Mulliken charges=   1.00000

 Dipole moment (field-independent basis, Debye):
    X=    -3.4816    Y=     4.1795    Z=     0.0000  Tot=     5.4397
 Quadrupole moment (field-independent basis, Debye-Ang):
   XX=    -1.3743   YY=   -92.1726   ZZ=   -54.7451
   XY=   -16.2290   XZ=     0.0000   YZ=     0.0000

 Normal termination of Gaussian 03 at Fri Jun 12 17:48:49 2015.
