 Gaussian 03, Revision E.01,
 Gaussian 03:  EM64T-G03RevE.01 11-Sep-2007

 ----------------------------------------------------
 # b3lyp/6-31+G(d,p) int=ultrafine pop=(ReadRadii,MK)
 ----------------------------------------------------

 -------------------------------------
 mol_17.24.39.pdb_plusQ.z58292.zip.xyz
 -------------------------------------
 Symbolic Z-matrix:
 Charge =  1 Multiplicity = 1

                         Standard orientation:
 ---------------------------------------------------------------------
 Center     Atomic     Atomic              Coordinates (Angstroms)
 Number     Number      Type              X           Y           Z
 ---------------------------------------------------------------------
    1          8             0        2.601310    0.380213    0.000451
    2         15             0        2.842850   -1.142007    0.000651
    3          8             0        1.511921   -1.922768   -0.001249
    4         20             0       -0.728729   -2.318569   -0.001119
    5          8             0       -2.264440   -0.928819   -0.784209
    6          8             0       -2.258460   -0.926379    0.788821
    7         20             0       -2.417231    1.203620   -0.000029
    8          8             0       -0.658571    2.447931   -0.001839
    9         20             0        1.441119    2.351382   -0.000129
 ---------------------------------------------------------------------

 SCF Done:  E(RB+HF-LYP) =  -2750.19710264     A.U. after    8 cycles

 The electronic state is 1-A.
 Alpha  occ. eigenvalues -- -145.50245-145.49519-145.43948 -77.30078 -19.27866
 Alpha  occ. eigenvalues --  -19.27702 -19.22479 -19.22472 -19.12213 -15.57108
 Alpha  occ. eigenvalues --  -15.56422 -15.50921 -12.70345 -12.70325 -12.70178
 Alpha  occ. eigenvalues --  -12.69675 -12.69628 -12.69458 -12.64146 -12.64143
 Alpha  occ. eigenvalues --  -12.63957  -6.75552  -4.91998  -4.91777  -4.91331
 Alpha  occ. eigenvalues --   -1.94314  -1.93662  -1.88350  -1.22286  -1.22011
 Alpha  occ. eigenvalues --   -1.21912  -1.21518  -1.21389  -1.20570  -1.16522
 Alpha  occ. eigenvalues --   -1.16137  -1.15617  -1.13711  -1.08481  -1.04678
 Alpha  occ. eigenvalues --   -0.86293  -0.86238  -0.67760  -0.57323  -0.52568
 Alpha  occ. eigenvalues --   -0.52497  -0.45797  -0.45757  -0.44704  -0.43914
 Alpha  occ. eigenvalues --   -0.42960  -0.40390  -0.34038  -0.32613  -0.30969
 Alpha  occ. eigenvalues --   -0.30562  -0.30362
 Alpha virt. eigenvalues --   -0.19720  -0.18399  -0.17449  -0.14061  -0.12036
 Alpha virt. eigenvalues --   -0.10577  -0.10162  -0.08900  -0.08319  -0.08284
 Alpha virt. eigenvalues --   -0.07013  -0.06734  -0.06064  -0.05999  -0.05476

 Mulliken atomic charges:
              1
     1  O   -0.703715
     2  P    0.654037
     3  O   -0.701739
     4  Ca   1.497907
     5  O   -0.676291
     6  O   -0.676312
     7  Ca   1.394337
     8  O   -1.247068
     9  Ca   1.458844
 Sum of Mulliken charges=   1.00000

 Dipole moment (field-independent basis, Debye):
    X=     1.9802    Y=     0.5309    Z=    -0.0079  Tot=     2.0502
 Quadrupole moment (field-independent basis, Debye-Ang):
   XX=   -55.9171   YY=   -34.8002   ZZ=   -77.5236
   XY=    11.2573   XZ=     0.0154   YZ=     0.0475

 Normal termination of Gaussian 03 at Fri Jun 12 17:55:34 2015.
