 Gaussian 03, Revision E.01,
 Gaussian 03:  EM64T-G03RevE.01 11-Sep-2007

 ----------------------------------------------------
 # b3lyp/6-31+G(d,p) int=ultrafine pop=(ReadRadii,MK)
 ----------------------------------------------------

 -----------------------------------------
 mol_17.26.47.pdbcccc_plusQ.z58458.zip.xyz
 -----------------------------------------
 Symbolic Z-matrix:
 Charge =  1 Multiplicity = 1

                         Standard orientation:
 ---------------------------------------------------------------------
 Center     Atomic     Atomic              Coordinates (Angstroms)
 Number     Number      Type              X           Y           Z
 ---------------------------------------------------------------------
    1          8             0        1.686849   -1.040360   -0.000019
    2          8             0       -2.787731   -1.054798    0.784621
    3          8             0       -2.787771   -1.054838   -0.784539
    4         20             0       -2.870559    1.038142   -0.000079
    5         20             0       -0.679811   -1.278179    0.000041
    6         15             0        3.250040   -0.966361   -0.000049
    7          8             0        3.591490    0.534389   -0.000049
    8          8             0       -0.624589    1.105081    0.000000
    9         20             0        1.481541    1.569020    0.000071
 ---------------------------------------------------------------------

 SCF Done:  E(RB+HF-LYP) =  -2750.21059132     A.U. after    9 cycles

 The electronic state is 1-A.
 Alpha  occ. eigenvalues -- -145.52558-145.47903-145.45928 -77.31436 -19.29695
 Alpha  occ. eigenvalues --  -19.28905 -19.20253 -19.20248 -19.17094 -15.59457
 Alpha  occ. eigenvalues --  -15.54771 -15.52792 -12.72722 -12.72680 -12.72478
 Alpha  occ. eigenvalues --  -12.67981 -12.67951 -12.67880 -12.66029 -12.65991
 Alpha  occ. eigenvalues --  -12.65876  -6.77035  -4.93465  -4.93240  -4.92822
 Alpha  occ. eigenvalues --   -1.96690  -1.92076  -1.90159  -1.24614  -1.24613
 Alpha  occ. eigenvalues --   -1.23576  -1.20503  -1.19685  -1.19273  -1.18006
 Alpha  occ. eigenvalues --   -1.17958  -1.17612  -1.15365  -1.09603  -1.02799
 Alpha  occ. eigenvalues --   -0.91875  -0.84034  -0.68625  -0.57620  -0.54920
 Alpha  occ. eigenvalues --   -0.54232  -0.46665  -0.45217  -0.43696  -0.42879
 Alpha  occ. eigenvalues --   -0.41966  -0.41268  -0.37527  -0.36623  -0.35917
 Alpha  occ. eigenvalues --   -0.30798  -0.29150
 Alpha virt. eigenvalues --   -0.21353  -0.20121  -0.17696  -0.14556  -0.13030
 Alpha virt. eigenvalues --   -0.11138  -0.10817  -0.10363  -0.09100  -0.08476
 Alpha virt. eigenvalues --   -0.07858  -0.07111  -0.06764  -0.06248  -0.05628

 Mulliken atomic charges:
              1
     1  O   -0.739629
     2  O   -0.654219
     3  O   -0.654228
     4  Ca   1.457030
     5  Ca   1.393385
     6  P    0.680227
     7  O   -0.655778
     8  O   -1.322789
     9  Ca   1.496000
 Sum of Mulliken charges=   1.00000

 Dipole moment (field-independent basis, Debye):
    X=     1.5384    Y=     9.0240    Z=     0.0000  Tot=     9.1542
 Quadrupole moment (field-independent basis, Debye-Ang):
   XX=   -64.0801   YY=   -51.7027   ZZ=   -77.1284
   XY=   -21.8722   XZ=     0.0031   YZ=     0.0001

 Normal termination of Gaussian 03 at Fri Jun 12 18:01:12 2015.
