 Gaussian 03, Revision E.01,
 Gaussian 03:  EM64T-G03RevE.01 11-Sep-2007

 ----------------------------------------------------
 # b3lyp/6-31+G(d,p) int=ultrafine pop=(ReadRadii,MK)
 ----------------------------------------------------

 ----------------------------------------
 mol_16.4.14.pdb_plusQ.out.z51565.zip.xyz
 ----------------------------------------
 Symbolic Z-matrix:
 Charge =  1 Multiplicity = 1

                         Standard orientation:
 ---------------------------------------------------------------------
 Center     Atomic     Atomic              Coordinates (Angstroms)
 Number     Number      Type              X           Y           Z
 ---------------------------------------------------------------------
    1          8             0        1.517920   -1.375339    0.000000
    2         15             0        0.322000   -2.364359    0.000000
    3         20             0        1.982700    0.836141    0.000000
    4          8             0        0.000000    1.548711    0.000000
    5          8             0       -1.139120    2.535621    0.000000
    6         20             0       -1.968100    0.495491    0.000000
    7          8             0       -1.019050   -1.604899    0.000000
 ---------------------------------------------------------------------

 SCF Done:  E(RB+HF-LYP) =  -1997.28618334     A.U. after    8 cycles

 The electronic state is 1-A'.
 Alpha  occ. eigenvalues -- -145.56427-145.51720 -77.31054 -19.29159 -19.28647
 Alpha  occ. eigenvalues --  -19.24387 -19.21652 -15.63213 -15.58612 -12.76466
 Alpha  occ. eigenvalues --  -12.76397 -12.76317 -12.71883 -12.71795 -12.71674
 Alpha  occ. eigenvalues --   -6.76537  -4.92977  -4.92761  -4.92314  -2.00225
 Alpha  occ. eigenvalues --   -1.95817  -1.27915  -1.27832  -1.27385  -1.23718
 Alpha  occ. eigenvalues --   -1.23688  -1.23112  -1.14838  -1.09503  -1.07360
 Alpha  occ. eigenvalues --   -0.85818  -0.68694  -0.58259  -0.53675  -0.53560
 Alpha  occ. eigenvalues --   -0.48659  -0.46762  -0.45349  -0.44827  -0.44357
 Alpha  occ. eigenvalues --   -0.41500  -0.31956  -0.30017
 Alpha virt. eigenvalues --   -0.22480  -0.20771  -0.19125  -0.13943  -0.12570
 Alpha virt. eigenvalues --   -0.11826  -0.11541  -0.09651  -0.08286  -0.07733
 Alpha virt. eigenvalues --   -0.06693  -0.06322  -0.05696  -0.05598  -0.05322

 Mulliken atomic charges:
              1
     1  O   -0.725336
     2  P    0.684233
     3  Ca   1.576052
     4  O   -0.690759
     5  O   -0.614173
     6  Ca   1.477340
     7  O   -0.707358
 Sum of Mulliken charges=   1.00000

 Dipole moment (field-independent basis, Debye):
    X=     3.1359    Y=    -0.1986    Z=     0.0000  Tot=     3.1422
 Quadrupole moment (field-independent basis, Debye-Ang):
   XX=    -7.0421   YY=   -76.8256   ZZ=   -54.2793
   XY=    15.0311   XZ=     0.0000   YZ=     0.0000

 Normal termination of Gaussian 03 at Fri Jun 12 17:46:23 2015.
