 Gaussian 03, Revision E.01,
 Gaussian 03:  EM64T-G03RevE.01 11-Sep-2007

 ----------------------------------------------------
 # b3lyp/6-31+G(d,p) int=ultrafine pop=(ReadRadii,MK)
 ----------------------------------------------------

 ---------------------------------------
 mol_17.23.37.pdbcc_plusQ.z58238.zip.xyz
 ---------------------------------------
 Symbolic Z-matrix:
 Charge =  1 Multiplicity = 1

                         Standard orientation:
 ---------------------------------------------------------------------
 Center     Atomic     Atomic              Coordinates (Angstroms)
 Number     Number      Type              X           Y           Z
 ---------------------------------------------------------------------
    1          8             0        0.640671    0.415601   -1.500881
    2         15             0        0.118325   -1.141431   -1.426281
    3          8             0       -1.552205   -1.014376   -0.880461
    4          8             0       -2.113859    0.144393   -0.063821
    5         20             0       -0.819896   -0.888774    1.515319
    6          8             0        0.835356   -1.604899   -0.010971
    7          8             0        0.422299    1.045320    1.403899
    8         20             0        2.163151    0.234385    0.312179
    9         20             0       -0.724904    1.916047   -0.336891
 ---------------------------------------------------------------------

 SCF Done:  E(RB+HF-LYP) =  -2750.21035982     A.U. after    8 cycles

 The electronic state is 1-A.
 Alpha  occ. eigenvalues -- -145.50965-145.50032-145.49668 -77.27041 -19.28852
 Alpha  occ. eigenvalues --  -19.25350 -19.23428 -19.23032 -19.16658 -15.57801
 Alpha  occ. eigenvalues --  -15.56856 -15.56460 -12.71010 -12.70973 -12.70924
 Alpha  occ. eigenvalues --  -12.70050 -12.70039 -12.69994 -12.69680 -12.69623
 Alpha  occ. eigenvalues --  -12.69609  -6.72135  -4.88563  -4.88423  -4.87900
 Alpha  occ. eigenvalues --   -1.95102  -1.94140  -1.93672  -1.23168  -1.22839
 Alpha  occ. eigenvalues --   -1.22454  -1.22334  -1.21696  -1.21426  -1.21271
 Alpha  occ. eigenvalues --   -1.21083  -1.20714  -1.13179  -1.07392  -1.02694
 Alpha  occ. eigenvalues --   -0.93106  -0.91567  -0.65297  -0.55840  -0.52712
 Alpha  occ. eigenvalues --   -0.51421  -0.48522  -0.47287  -0.44382  -0.42316
 Alpha  occ. eigenvalues --   -0.39783  -0.38426  -0.37054  -0.36739  -0.35861
 Alpha  occ. eigenvalues --   -0.34629  -0.32790
 Alpha virt. eigenvalues --   -0.20650  -0.18458  -0.17447  -0.13981  -0.12919
 Alpha virt. eigenvalues --   -0.11312  -0.10748  -0.09642  -0.08860  -0.08056
 Alpha virt. eigenvalues --   -0.07441  -0.06425  -0.06170  -0.05806  -0.05309

 Mulliken atomic charges:
              1
     1  O   -1.036988
     2  P    1.074193
     3  O   -0.486745
     4  O   -0.621201
     5  Ca   1.451663
     6  O   -1.033435
     7  O   -1.263919
     8  Ca   1.421823
     9  Ca   1.494609
 Sum of Mulliken charges=   1.00000

 Dipole moment (field-independent basis, Debye):
    X=     4.9130    Y=     5.7932    Z=     5.8581  Tot=     9.5925
 Quadrupole moment (field-independent basis, Debye-Ang):
   XX=   -52.0438   YY=   -58.0361   ZZ=   -75.4549
   XY=    -2.2076   XZ=    -6.0090   YZ=   -22.4411

 Normal termination of Gaussian 03 at Fri Jun 12 17:53:26 2015.
