 Gaussian 03, Revision E.01,
 Gaussian 03:  EM64T-G03RevE.01 11-Sep-2007

 ----------------------------------------------------
 # b3lyp/6-31+G(d,p) int=ultrafine pop=(ReadRadii,MK)
 ----------------------------------------------------

 --------------------------------------
 mol_17.27.35.pdbc_plusQ.z58501.zip.xyz
 --------------------------------------
 Symbolic Z-matrix:
 Charge =  1 Multiplicity = 1

                         Standard orientation:
 ---------------------------------------------------------------------
 Center     Atomic     Atomic              Coordinates (Angstroms)
 Number     Number      Type              X           Y           Z
 ---------------------------------------------------------------------
    1          8             0        0.000000    0.683489    0.000000
    2          8             0        1.470623   -1.093728    0.000000
    3          8             0       -0.283274   -2.605022    0.000000
    4         15             0       -0.120447   -0.972411    0.000000
    5         20             0       -2.435423   -2.878206    0.000000
    6          8             0       -1.773707   -0.782825    0.000000
    7         20             0       -0.342674    2.892128    0.000000
    8         20             0        2.393729    1.001343    0.000000
    9          8             0        1.773115    3.083192    0.000000
 ---------------------------------------------------------------------

 SCF Done:  E(RB+HF-LYP) =  -2750.14506295     A.U. after   10 cycles

 The electronic state is 1-A'.
 Alpha  occ. eigenvalues -- -145.54045-145.47741-145.44141 -77.31529 -19.19563
 Alpha  occ. eigenvalues --  -19.19485 -19.19263 -19.18588 -19.10691 -15.60878
 Alpha  occ. eigenvalues --  -15.54578 -15.51100 -12.74121 -12.74023 -12.73992
 Alpha  occ. eigenvalues --  -12.67823 -12.67738 -12.67666 -12.64370 -12.64297
 Alpha  occ. eigenvalues --  -12.64116  -6.75413  -4.92282  -4.91573  -4.91492
 Alpha  occ. eigenvalues --   -1.98001  -1.91822  -1.88517  -1.25709  -1.25355
 Alpha  occ. eigenvalues --   -1.25205  -1.19644  -1.19472  -1.18739  -1.16576
 Alpha  occ. eigenvalues --   -1.16344  -1.15457  -1.08331  -1.00640  -1.00367
 Alpha  occ. eigenvalues --   -0.95173  -0.84523  -0.61711  -0.51531  -0.49890
 Alpha  occ. eigenvalues --   -0.48670  -0.45557  -0.40064  -0.39459  -0.38392
 Alpha  occ. eigenvalues --   -0.36473  -0.35045  -0.34561  -0.30970  -0.30040
 Alpha  occ. eigenvalues --   -0.28555  -0.28226
 Alpha virt. eigenvalues --   -0.22186  -0.18019  -0.14670  -0.13272  -0.12723
 Alpha virt. eigenvalues --   -0.12254  -0.11283  -0.10094  -0.08396  -0.08072
 Alpha virt. eigenvalues --   -0.07616  -0.07418  -0.06836  -0.05698  -0.05142

 Mulliken atomic charges:
              1
     1  O   -1.237910
     2  O   -0.943068
     3  O   -0.951660
     4  P    1.932024
     5  Ca   1.502726
     6  O   -0.966713
     7  Ca   1.400547
     8  Ca   1.418516
     9  O   -1.154463
 Sum of Mulliken charges=   1.00000

 Dipole moment (field-independent basis, Debye):
    X=   -12.5747    Y=    -5.0734    Z=     0.0000  Tot=    13.5596
 Quadrupole moment (field-independent basis, Debye-Ang):
   XX=   -25.5546   YY=   -36.1735   ZZ=   -72.4619
   XY=    25.4413   XZ=     0.0000   YZ=     0.0000

 Normal termination of Gaussian 03 at Fri Jun 12 18:06:34 2015.
