 Gaussian 03, Revision E.01,
 Gaussian 03:  EM64T-G03RevE.01 11-Sep-2007

 ----------------------------------------------------
 # b3lyp/6-31+G(d,p) int=ultrafine pop=(ReadRadii,MK)
 ----------------------------------------------------

 ---------------------------------------
 mol_17.23.17.pdbcc_plusQ.z58217.zip.xyz
 ---------------------------------------
 Symbolic Z-matrix:
 Charge =  1 Multiplicity = 1

                         Standard orientation:
 ---------------------------------------------------------------------
 Center     Atomic     Atomic              Coordinates (Angstroms)
 Number     Number      Type              X           Y           Z
 ---------------------------------------------------------------------
    1          8             0       -2.193010    0.104640    1.211000
    2          8             0       -1.216600   -1.086780    1.125270
    3         20             0       -2.849930   -1.339410   -0.388240
    4         15             0       -1.928959    1.471720   -0.142630
    5          8             0       -1.610880    0.324110   -1.285100
    6          8             0       -0.541719    2.047749    0.246450
    7         20             0        0.604020    0.059449    0.103660
    8          8             0        2.760010   -0.388712   -0.089520
    9         20             0        4.813510   -0.224232   -0.091690
 ---------------------------------------------------------------------

 SCF Done:  E(RB+HF-LYP) =  -2750.11875678     A.U. after    8 cycles

 The electronic state is 1-A.
 Alpha  occ. eigenvalues -- -145.56800-145.50881-145.40620 -77.21203 -19.23833
 Alpha  occ. eigenvalues --  -19.21961 -19.18409 -19.16601 -19.15130 -15.63578
 Alpha  occ. eigenvalues --  -15.57690 -15.47529 -12.76795 -12.76794 -12.76661
 Alpha  occ. eigenvalues --  -12.70908 -12.70847 -12.70831 -12.60791 -12.60717
 Alpha  occ. eigenvalues --  -12.60595  -6.66544  -4.82999  -4.82802  -4.82323
 Alpha  occ. eigenvalues --   -2.00478  -1.94875  -1.84986  -1.27998  -1.27994
 Alpha  occ. eigenvalues --   -1.27091  -1.22923  -1.22415  -1.22123  -1.13029
 Alpha  occ. eigenvalues --   -1.12916  -1.12762  -1.07226  -1.02542  -0.97726
 Alpha  occ. eigenvalues --   -0.89114  -0.87435  -0.58901  -0.49433  -0.46763
 Alpha  occ. eigenvalues --   -0.46131  -0.44013  -0.42700  -0.38159  -0.35765
 Alpha  occ. eigenvalues --   -0.35647  -0.34435  -0.33214  -0.33163  -0.32422
 Alpha  occ. eigenvalues --   -0.31920  -0.29033
 Alpha virt. eigenvalues --   -0.24418  -0.19122  -0.14614  -0.14554  -0.13270
 Alpha virt. eigenvalues --   -0.12081  -0.09670  -0.08833  -0.07909  -0.07242
 Alpha virt. eigenvalues --   -0.06070  -0.05804  -0.05570  -0.05138  -0.04811

 Mulliken atomic charges:
              1
     1  O   -0.478323
     2  O   -0.666544
     3  Ca   1.392384
     4  P    0.856965
     5  O   -0.900753
     6  O   -0.857321
     7  Ca   1.369746
     8  O   -1.153248
     9  Ca   1.437093
 Sum of Mulliken charges=   1.00000

 Dipole moment (field-independent basis, Debye):
    X=    14.3578    Y=   -10.0681    Z=    -4.1853  Tot=    18.0286
 Quadrupole moment (field-independent basis, Debye-Ang):
   XX=    86.5872   YY=   -75.2118   ZZ=   -87.7336
   XY=    26.0854   XZ=     9.9118   YZ=     7.5467

 Normal termination of Gaussian 03 at Fri Jun 12 17:52:11 2015.
