 Gaussian 03, Revision E.01,
 Gaussian 03:  EM64T-G03RevE.01 11-Sep-2007

 ----------------------------------------------------
 # b3lyp/6-31+G(d,p) int=ultrafine pop=(ReadRadii,MK)
 ----------------------------------------------------

 --------------------------------------
 mol_17.29.18.pdbc_plusQ.z58598.zip.xyz
 --------------------------------------
 Symbolic Z-matrix:
 Charge =  1 Multiplicity = 1

                         Standard orientation:
 ---------------------------------------------------------------------
 Center     Atomic     Atomic              Coordinates (Angstroms)
 Number     Number      Type              X           Y           Z
 ---------------------------------------------------------------------
    1          8             0        3.410439   -0.653137   -0.017231
    2          8             0       -0.825440   -0.881489    0.780119
    3         20             0        1.222050   -1.492878    0.010779
    4         15             0        3.170259    0.867263   -0.010201
    5          8             0        1.613069    1.041312    0.015019
    6          8             0       -0.817470   -0.878279   -0.775611
    7         20             0       -3.075210   -0.694410   -0.009271
    8          8             0       -2.875402    1.415870   -0.004841
    9         20             0       -0.726612    1.519131    0.007159
 ---------------------------------------------------------------------

 SCF Done:  E(RB+HF-LYP) =  -2750.19922428     A.U. after    8 cycles

 The electronic state is 1-A.
 Alpha  occ. eigenvalues -- -145.53306-145.48100-145.46504 -77.31647 -19.29957
 Alpha  occ. eigenvalues --  -19.29138 -19.27662 -19.27656 -19.10313 -15.60152
 Alpha  occ. eigenvalues --  -15.54937 -15.53363 -12.73388 -12.73383 -12.73218
 Alpha  occ. eigenvalues --  -12.68156 -12.68120 -12.68041 -12.66617 -12.66581
 Alpha  occ. eigenvalues --  -12.66412  -6.77271  -4.93703  -4.93471  -4.93053
 Alpha  occ. eigenvalues --   -1.97336  -1.92135  -1.90672  -1.25318  -1.25147
 Alpha  occ. eigenvalues --   -1.25008  -1.20359  -1.19790  -1.19239  -1.18533
 Alpha  occ. eigenvalues --   -1.18454  -1.17871  -1.15547  -1.10911  -1.09761
 Alpha  occ. eigenvalues --   -0.91297  -0.84521  -0.68928  -0.57895  -0.55266
 Alpha  occ. eigenvalues --   -0.54477  -0.51225  -0.50449  -0.49466  -0.46899
 Alpha  occ. eigenvalues --   -0.45453  -0.42696  -0.38854  -0.36721  -0.30147
 Alpha  occ. eigenvalues --   -0.28564  -0.28510
 Alpha virt. eigenvalues --   -0.21597  -0.19568  -0.17911  -0.15029  -0.15016
 Alpha virt. eigenvalues --   -0.11257  -0.10533  -0.09853  -0.09290  -0.08795
 Alpha virt. eigenvalues --   -0.08671  -0.08136  -0.07318  -0.06845  -0.06404

 Mulliken atomic charges:
              1
     1  O   -0.647482
     2  O   -0.694137
     3  Ca   1.503228
     4  P    0.680206
     5  O   -0.742598
     6  O   -0.694505
     7  Ca   1.362858
     8  O   -1.123797
     9  Ca   1.356227
 Sum of Mulliken charges=   1.00000

 Dipole moment (field-independent basis, Debye):
    X=     0.3574    Y=    -7.6456    Z=     0.0603  Tot=     7.6542
 Quadrupole moment (field-independent basis, Debye-Ang):
   XX=   -63.4573   YY=   -57.0396   ZZ=   -77.2577
   XY=    23.1544   XZ=     0.2699   YZ=    -0.0353

 Normal termination of Gaussian 03 at Fri Jun 12 18:11:37 2015.
