 Gaussian 03, Revision E.01,
 Gaussian 03:  EM64T-G03RevE.01 11-Sep-2007

 ----------------------------------------------------
 # b3lyp/6-31+G(d,p) int=ultrafine pop=(ReadRadii,MK)
 ----------------------------------------------------

 ---------------------------------------
 mol_17.28.20.pdbcc_plusQ.z58543.zip.xyz
 ---------------------------------------
 Symbolic Z-matrix:
 Charge =  1 Multiplicity = 1

                         Standard orientation:
 ---------------------------------------------------------------------
 Center     Atomic     Atomic              Coordinates (Angstroms)
 Number     Number      Type              X           Y           Z
 ---------------------------------------------------------------------
    1          8             0        3.410899   -0.653206   -0.007118
    2          8             0       -0.820251   -0.879719   -0.776238
    3         20             0       -3.075751   -0.693975   -0.005068
    4         15             0        3.170531    0.866895   -0.005168
    5         20             0        1.221968   -1.492172    0.005462
    6          8             0        1.613132    1.040417    0.004482
    7          8             0       -2.874928    1.415974   -0.001488
    8         20             0       -0.726227    1.518761    0.004102
    9          8             0       -0.823571   -0.880429    0.778812
 ---------------------------------------------------------------------

 SCF Done:  E(RB+HF-LYP) =  -2750.19922726     A.U. after    8 cycles

 The electronic state is 1-A.
 Alpha  occ. eigenvalues -- -145.53302-145.48097-145.46501 -77.31649 -19.29961
 Alpha  occ. eigenvalues --  -19.29141 -19.27654 -19.27648 -19.10310 -15.60148
 Alpha  occ. eigenvalues --  -15.54934 -15.53360 -12.73384 -12.73379 -12.73214
 Alpha  occ. eigenvalues --  -12.68153 -12.68117 -12.68038 -12.66614 -12.66578
 Alpha  occ. eigenvalues --  -12.66409  -6.77274  -4.93706  -4.93474  -4.93056
 Alpha  occ. eigenvalues --   -1.97333  -1.92133  -1.90670  -1.25316  -1.25147
 Alpha  occ. eigenvalues --   -1.25006  -1.20357  -1.19787  -1.19237  -1.18530
 Alpha  occ. eigenvalues --   -1.18453  -1.17871  -1.15556  -1.10926  -1.09769
 Alpha  occ. eigenvalues --   -0.91280  -0.84520  -0.68933  -0.57902  -0.55276
 Alpha  occ. eigenvalues --   -0.54487  -0.51229  -0.50455  -0.49471  -0.46906
 Alpha  occ. eigenvalues --   -0.45460  -0.42702  -0.38841  -0.36708  -0.30147
 Alpha  occ. eigenvalues --   -0.28563  -0.28509
 Alpha virt. eigenvalues --   -0.21599  -0.19565  -0.17909  -0.15030  -0.14999
 Alpha virt. eigenvalues --   -0.11256  -0.10527  -0.09853  -0.09282  -0.08790
 Alpha virt. eigenvalues --   -0.08673  -0.08136  -0.07318  -0.06844  -0.06403

 Mulliken atomic charges:
              1
     1  O   -0.647240
     2  O   -0.694335
     3  Ca   1.362920
     4  P    0.680100
     5  Ca   1.503200
     6  O   -0.742670
     7  O   -1.123815
     8  Ca   1.356172
     9  O   -0.694332
 Sum of Mulliken charges=   1.00000

 Dipole moment (field-independent basis, Debye):
    X=     0.3574    Y=    -7.6395    Z=     0.0284  Tot=     7.6479
 Quadrupole moment (field-independent basis, Debye-Ang):
   XX=   -63.4184   YY=   -57.0703   ZZ=   -77.2542
   XY=    23.1599   XZ=     0.1499   YZ=    -0.0057

 Normal termination of Gaussian 03 at Fri Jun 12 18:08:32 2015.
