 Gaussian 03, Revision E.01,
 Gaussian 03:  EM64T-G03RevE.01 11-Sep-2007

 ----------------------------------------------------
 # b3lyp/6-31+G(d,p) int=ultrafine pop=(ReadRadii,MK)
 ----------------------------------------------------

 ---------------------------------------
 mol_17.27.20.pdbcc_plusQ.z58488.zip.xyz
 ---------------------------------------
 Symbolic Z-matrix:
 Charge =  1 Multiplicity = 1

                         Standard orientation:
 ---------------------------------------------------------------------
 Center     Atomic     Atomic              Coordinates (Angstroms)
 Number     Number      Type              X           Y           Z
 ---------------------------------------------------------------------
    1          8             0       -0.008693    1.275749    1.197759
    2          8             0        4.009090   -0.000032   -0.385201
    3         20             0        1.850480   -0.000337    0.206809
    4          8             0        0.220390   -0.000021   -1.481021
    5         20             0       -1.011414    1.753076   -0.860861
    6         15             0       -0.925110    0.000027    1.544809
    7          8             0       -2.044780    0.000264    0.361999
    8         20             0       -1.011996   -1.752764   -0.861021
    9          8             0       -0.009097   -1.275951    1.197629
 ---------------------------------------------------------------------

 SCF Done:  E(RB+HF-LYP) =  -2750.13179912     A.U. after   18 cycles

 The electronic state is 1-A.
 Alpha  occ. eigenvalues -- -145.54372-145.54368-145.46598 -77.31607 -19.27364
 Alpha  occ. eigenvalues --  -19.26994 -19.26993 -19.24479 -19.20313 -15.61167
 Alpha  occ. eigenvalues --  -15.61164 -15.53504 -12.74377 -12.74376 -12.74343
 Alpha  occ. eigenvalues --  -12.74342 -12.74301 -12.74300 -12.66757 -12.66709
 Alpha  occ. eigenvalues --  -12.66562  -6.76673  -4.93007  -4.92990  -4.92700
 Alpha  occ. eigenvalues --   -1.98340  -1.98302  -1.90924  -1.26507  -1.26016
 Alpha  occ. eigenvalues --   -1.25953  -1.25701  -1.25623  -1.25165  -1.18955
 Alpha  occ. eigenvalues --   -1.18823  -1.18454  -1.13861  -1.07084  -1.07041
 Alpha  occ. eigenvalues --   -0.94952  -0.93756  -0.67346  -0.56557  -0.56345
 Alpha  occ. eigenvalues --   -0.54258  -0.49234  -0.48806  -0.44122  -0.43966
 Alpha  occ. eigenvalues --   -0.43251  -0.40126  -0.39691  -0.37984  -0.37058
 Alpha  occ. eigenvalues --   -0.36110  -0.33480
 Alpha virt. eigenvalues --   -0.31050  -0.22193  -0.20830  -0.15135  -0.13386
 Alpha virt. eigenvalues --   -0.13011  -0.12152  -0.11853  -0.09007  -0.08140
 Alpha virt. eigenvalues --   -0.07782  -0.06995  -0.06902  -0.06234  -0.05587

 Mulliken atomic charges:
              1
     1  O   -0.915694
     2  O   -0.502544
     3  Ca   1.337919
     4  O   -1.199645
     5  Ca   1.495127
     6  P    1.157360
     7  O   -0.951979
     8  Ca   1.495138
     9  O   -0.915682
 Sum of Mulliken charges=   1.00000

 Dipole moment (field-independent basis, Debye):
    X=    -9.7724    Y=     0.0000    Z=    -6.1855  Tot=    11.5655
 Quadrupole moment (field-independent basis, Debye-Ang):
   XX=   -93.2153   YY=   -37.0186   ZZ=   -79.8466
   XY=     0.0014   XZ=    22.7506   YZ=    -0.0009

 Normal termination of Gaussian 03 at Fri Jun 12 18:08:34 2015.
