 Gaussian 03, Revision E.01,
 Gaussian 03:  EM64T-G03RevE.01 11-Sep-2007

 ----------------------------------------------------
 # b3lyp/6-31+G(d,p) int=ultrafine pop=(ReadRadii,MK)
 ----------------------------------------------------

 -----------------------------------------
 mol_17.29.48.pdbcccc_plusQ.z58630.zip.xyz
 -----------------------------------------
 Symbolic Z-matrix:
 Charge =  1 Multiplicity = 1

                         Standard orientation:
 ---------------------------------------------------------------------
 Center     Atomic     Atomic              Coordinates (Angstroms)
 Number     Number      Type              X           Y           Z
 ---------------------------------------------------------------------
    1          8             0        1.242370   -1.456938    0.867500
    2         15             0        0.003210   -0.855448    0.200820
    3          8             0       -0.896950   -1.719289   -0.676880
    4          8             0        0.727619    0.258982   -0.939350
    5          8             0        1.477869    1.352372   -0.180350
    6         20             0       -0.682441    2.251131    0.078990
    7          8             0       -0.917271    0.096201    1.036720
    8         20             0        2.970660   -0.372477   -0.112070
    9         20             0       -2.944080   -0.649599   -0.160590
 ---------------------------------------------------------------------

 SCF Done:  E(RB+HF-LYP) =  -2750.16900994     A.U. after   14 cycles

 The electronic state is 1-A.
 Alpha  occ. eigenvalues -- -145.55397-145.51932-145.51328 -77.34444 -19.34005
 Alpha  occ. eigenvalues --  -19.30110 -19.25590 -19.24951 -19.24261 -15.62211
 Alpha  occ. eigenvalues --  -15.58841 -15.58225 -12.75445 -12.75363 -12.75356
 Alpha  occ. eigenvalues --  -12.72051 -12.72013 -12.71948 -12.71446 -12.71385
 Alpha  occ. eigenvalues --  -12.71337  -6.78928  -4.95453  -4.95194  -4.95137
 Alpha  occ. eigenvalues --   -1.99194  -1.95855  -1.95310  -1.27401  -1.26739
 Alpha  occ. eigenvalues --   -1.26493  -1.23752  -1.23317  -1.23163  -1.23100
 Alpha  occ. eigenvalues --   -1.22755  -1.22656  -1.18924  -1.13391  -1.07790
 Alpha  occ. eigenvalues --   -1.06520  -0.97050  -0.66830  -0.59799  -0.57396
 Alpha  occ. eigenvalues --   -0.56799  -0.53846  -0.52817  -0.47737  -0.46981
 Alpha  occ. eigenvalues --   -0.45290  -0.45025  -0.42672  -0.40943  -0.40357
 Alpha  occ. eigenvalues --   -0.40271  -0.25221
 Alpha virt. eigenvalues --   -0.22440  -0.19371  -0.16275  -0.13616  -0.13170
 Alpha virt. eigenvalues --   -0.12651  -0.12037  -0.10985  -0.10547  -0.09319
 Alpha virt. eigenvalues --   -0.08506  -0.07236  -0.06720  -0.06238  -0.05338

 Mulliken atomic charges:
              1
     1  O   -0.835289
     2  P    1.781738
     3  O   -0.794548
     4  O   -0.541607
     5  O   -0.637918
     6  Ca   0.938104
     7  O   -0.915807
     8  Ca   1.262769
     9  Ca   0.742556
 Sum of Mulliken charges=   1.00000

 Dipole moment (field-independent basis, Debye):
    X=     4.7515    Y=     2.5778    Z=    -0.4980  Tot=     5.4286
 Quadrupole moment (field-independent basis, Debye-Ang):
   XX=   -17.6567   YY=   -75.5675   ZZ=   -91.6444
   XY=     3.1287   XZ=    -3.1600   YZ=     3.9941

 Normal termination of Gaussian 03 at Fri Jun 12 18:14:07 2015.
