 Gaussian 03, Revision E.01,
 Gaussian 03:  EM64T-G03RevE.01 11-Sep-2007

 ----------------------------------------------------
 # b3lyp/6-31+G(d,p) int=ultrafine pop=(ReadRadii,MK)
 ----------------------------------------------------

 ------------------------------------------
 mol_16.4.40.pdbcc_plusQ.out.z51590.zip.xyz
 ------------------------------------------
 Symbolic Z-matrix:
 Charge =  1 Multiplicity = 1

                         Standard orientation:
 ---------------------------------------------------------------------
 Center     Atomic     Atomic              Coordinates (Angstroms)
 Number     Number      Type              X           Y           Z
 ---------------------------------------------------------------------
    1          8             0       -0.203485   -1.708540   -0.005622
    2          8             0        1.729870   -0.029446   -0.765902
    3          8             0        1.723620   -0.030386    0.770428
    4         15             0        1.326696   -1.579015    0.000698
    5         20             0       -2.205761   -0.598495    0.001048
    6          8             0       -1.524546    1.397193   -0.000652
    7         20             0        0.520556    1.931227   -0.000872
 ---------------------------------------------------------------------

 SCF Done:  E(RB+HF-LYP) =  -1997.25492641     A.U. after    8 cycles

 The electronic state is 1-A.
 Alpha  occ. eigenvalues -- -145.52552-145.52293 -77.32946 -19.36150 -19.35996
 Alpha  occ. eigenvalues --  -19.28495 -19.15020 -15.59421 -15.59134 -12.72670
 Alpha  occ. eigenvalues --  -12.72595 -12.72504 -12.72367 -12.72337 -12.72217
 Alpha  occ. eigenvalues --   -6.78142  -4.94525  -4.94435  -4.93881  -1.96562
 Alpha  occ. eigenvalues --   -1.96246  -1.27101  -1.24347  -1.24145  -1.23924
 Alpha  occ. eigenvalues --   -1.23698  -1.23126  -1.22462  -1.12156  -1.00021
 Alpha  occ. eigenvalues --   -0.89424  -0.73036  -0.60914  -0.58900  -0.57892
 Alpha  occ. eigenvalues --   -0.53906  -0.48259  -0.46912  -0.42441  -0.42266
 Alpha  occ. eigenvalues --   -0.35633  -0.33598  -0.33506
 Alpha virt. eigenvalues --   -0.20897  -0.19543  -0.19408  -0.16452  -0.12532
 Alpha virt. eigenvalues --   -0.11228  -0.11078  -0.11010  -0.10013  -0.08471
 Alpha virt. eigenvalues --   -0.07621  -0.06637  -0.06225  -0.05388  -0.05361

 Mulliken atomic charges:
              1
     1  O   -0.753257
     2  O   -0.420419
     3  O   -0.424310
     4  P    0.848546
     5  Ca   1.477377
     6  O   -1.188045
     7  Ca   1.460108
 Sum of Mulliken charges=   1.00000

 Dipole moment (field-independent basis, Debye):
    X=    -3.9513    Y=     1.7006    Z=    -0.0038  Tot=     4.3017
 Quadrupole moment (field-independent basis, Debye-Ang):
   XX=   -36.6625   YY=   -39.2242   ZZ=   -56.5005
   XY=    26.7212   XZ=    -0.0719   YZ=    -0.0360

 Normal termination of Gaussian 03 at Fri Jun 12 17:48:18 2015.
