 Gaussian 03, Revision E.01,
 Gaussian 03:  EM64T-G03RevE.01 11-Sep-2007

 ----------------------------------------------------
 # b3lyp/6-31+G(d,p) int=ultrafine pop=(ReadRadii,MK)
 ----------------------------------------------------

 ---------------------------------------
 mol_16.5.4.pdb_plusQ.out.z51629.zip.xyz
 ---------------------------------------
 Symbolic Z-matrix:
 Charge =  1 Multiplicity = 1

                         Standard orientation:
 ---------------------------------------------------------------------
 Center     Atomic     Atomic              Coordinates (Angstroms)
 Number     Number      Type              X           Y           Z
 ---------------------------------------------------------------------
    1          8             0       -1.713260    0.001900    0.786359
    2          8             0       -1.713740    0.001910   -0.785901
    3         15             0        2.320040   -0.002621    0.000109
    4         20             0       -0.763828   -1.857308   -0.000101
    5          8             0        1.440765   -1.274952   -0.000051
    6         20             0       -0.759342    1.858892   -0.000061
    7          8             0        1.444085    1.272098   -0.000211
 ---------------------------------------------------------------------

 SCF Done:  E(RB+HF-LYP) =  -1997.33372467     A.U. after    6 cycles

 The electronic state is 1-A.
 Alpha  occ. eigenvalues -- -145.53247-145.53246 -77.30164 -19.27956 -19.27950
 Alpha  occ. eigenvalues --  -19.25592 -19.25582 -15.60093 -15.60093 -12.73308
 Alpha  occ. eigenvalues --  -12.73308 -12.73290 -12.73290 -12.73208 -12.73206
 Alpha  occ. eigenvalues --   -6.75645  -4.92085  -4.91869  -4.91425  -1.97236
 Alpha  occ. eigenvalues --   -1.97210  -1.25765  -1.24806  -1.24792  -1.24726
 Alpha  occ. eigenvalues --   -1.24725  -1.24302  -1.13922  -1.08554  -1.08254
 Alpha  occ. eigenvalues --   -0.89518  -0.67706  -0.57281  -0.52822  -0.52600
 Alpha  occ. eigenvalues --   -0.48994  -0.47946  -0.46121  -0.45762  -0.43901
 Alpha  occ. eigenvalues --   -0.40701  -0.37188  -0.34164
 Alpha virt. eigenvalues --   -0.20456  -0.19854  -0.19631  -0.14479  -0.11367
 Alpha virt. eigenvalues --   -0.11280  -0.10319  -0.09666  -0.09039  -0.07375
 Alpha virt. eigenvalues --   -0.07215  -0.06432  -0.05962  -0.05215  -0.04858

 Mulliken atomic charges:
              1
     1  O   -0.668634
     2  O   -0.668486
     3  P    0.668825
     4  Ca   1.544008
     5  O   -0.709774
     6  Ca   1.544007
     7  O   -0.709945
 Sum of Mulliken charges=   1.00000

 Dipole moment (field-independent basis, Debye):
    X=    -3.1399    Y=     0.0007    Z=    -0.0023  Tot=     3.1399
 Quadrupole moment (field-independent basis, Debye-Ang):
   XX=   -66.5066   YY=    -8.8863   ZZ=   -58.2533
   XY=     0.0654   XZ=     0.0040   YZ=     0.0014

 Normal termination of Gaussian 03 at Fri Jun 12 17:49:32 2015.
