 Gaussian 03, Revision E.01,
 Gaussian 03:  EM64T-G03RevE.01 11-Sep-2007

 ----------------------------------------------------
 # b3lyp/6-31+G(d,p) int=ultrafine pop=(ReadRadii,MK)
 ----------------------------------------------------

 --------------------------------------
 mol_17.26.52.pdbc_plusQ.z58464.zip.xyz
 --------------------------------------
 Symbolic Z-matrix:
 Charge =  1 Multiplicity = 1

                         Standard orientation:
 ---------------------------------------------------------------------
 Center     Atomic     Atomic              Coordinates (Angstroms)
 Number     Number      Type              X           Y           Z
 ---------------------------------------------------------------------
    1          8             0       -1.159209    0.880701    1.115919
    2          8             0        1.260851    0.758201    0.700539
    3          8             0        2.561221    0.082891    0.389869
    4         20             0        1.283971   -1.230989   -0.921271
    5         15             0        0.046241   -0.052429    1.763459
    6          8             0       -0.498449   -0.016609   -1.701221
    7         20             0       -0.082669    1.945451   -0.703421
    8         20             0       -2.034479   -0.778379   -0.271081
    9          8             0       -0.168179   -1.447089    0.927839
 ---------------------------------------------------------------------

 SCF Done:  E(RB+HF-LYP) =  -2750.19417677     A.U. after    9 cycles

 The electronic state is 1-A.
 Alpha  occ. eigenvalues -- -145.51667-145.51600-145.48703 -77.27302 -19.29091
 Alpha  occ. eigenvalues --  -19.23572 -19.23491 -19.23300 -19.17355 -15.58479
 Alpha  occ. eigenvalues --  -15.58426 -15.55551 -12.71692 -12.71655 -12.71633
 Alpha  occ. eigenvalues --  -12.71606 -12.71598 -12.71553 -12.68779 -12.68745
 Alpha  occ. eigenvalues --  -12.68645  -6.72399  -4.88804  -4.88690  -4.88157
 Alpha  occ. eigenvalues --   -1.95725  -1.95670  -1.92862  -1.23977  -1.23551
 Alpha  occ. eigenvalues --   -1.23416  -1.23064  -1.23029  -1.22529  -1.21064
 Alpha  occ. eigenvalues --   -1.20537  -1.19966  -1.13357  -1.07574  -1.03116
 Alpha  occ. eigenvalues --   -0.92326  -0.90586  -0.65535  -0.55298  -0.53388
 Alpha  occ. eigenvalues --   -0.51709  -0.49582  -0.46917  -0.44128  -0.42334
 Alpha  occ. eigenvalues --   -0.40302  -0.37804  -0.37638  -0.36831  -0.35227
 Alpha  occ. eigenvalues --   -0.33499  -0.32025
 Alpha virt. eigenvalues --   -0.20905  -0.19066  -0.17415  -0.13459  -0.12276
 Alpha virt. eigenvalues --   -0.11629  -0.10498  -0.10036  -0.08919  -0.08220
 Alpha virt. eigenvalues --   -0.07986  -0.06859  -0.06591  -0.06167  -0.05828

 Mulliken atomic charges:
              1
     1  O   -1.001291
     2  O   -0.590370
     3  O   -0.569020
     4  Ca   1.417379
     5  P    1.101376
     6  O   -1.261594
     7  Ca   1.493399
     8  Ca   1.429032
     9  O   -1.018912
 Sum of Mulliken charges=   1.00000

 Dipole moment (field-independent basis, Debye):
    X=    -6.9447    Y=    -0.1184    Z=    -8.5342  Tot=    11.0034
 Quadrupole moment (field-independent basis, Debye-Ang):
   XX=   -58.4094   YY=   -40.8401   ZZ=   -88.3298
   XY=    -0.3207   XZ=    -9.1278   YZ=    -0.2749

 Normal termination of Gaussian 03 at Fri Jun 12 18:02:15 2015.
