 Gaussian 03, Revision E.01,
 Gaussian 03:  EM64T-G03RevE.01 11-Sep-2007

 ----------------------------------------------------
 # b3lyp/6-31+G(d,p) int=ultrafine pop=(ReadRadii,MK)
 ----------------------------------------------------

 -----------------------------------------
 mol_16.5.17.pdbc_plusQ.out.z51622.zip.xyz
 -----------------------------------------
 Symbolic Z-matrix:
 Charge =  1 Multiplicity = 1

                         Standard orientation:
 ---------------------------------------------------------------------
 Center     Atomic     Atomic              Coordinates (Angstroms)
 Number     Number      Type              X           Y           Z
 ---------------------------------------------------------------------
    1          8             0       -2.488739   -1.239569    0.000412
    2         15             0       -3.420399    0.001312   -0.001108
    3          8             0       -2.486379    1.240391   -0.000808
    4         20             0       -0.488059   -0.001539    0.001592
    5         20             0        3.701421    0.000930   -0.000868
    6          8             0        1.677941    0.000090    0.788112
    7          8             0        1.677021   -0.001850   -0.787448
 ---------------------------------------------------------------------

 SCF Done:  E(RB+HF-LYP) =  -1997.29959313     A.U. after    6 cycles

 The electronic state is 1-A.
 Alpha  occ. eigenvalues -- -145.61307-145.47821 -77.25120 -19.28177 -19.28172
 Alpha  occ. eigenvalues --  -19.23099 -19.23095 -15.68065 -15.54721 -12.81314
 Alpha  occ. eigenvalues --  -12.81251 -12.81181 -12.67969 -12.67941 -12.67774
 Alpha  occ. eigenvalues --   -6.70872  -4.87304  -4.87052  -4.86668  -2.04907
 Alpha  occ. eigenvalues --   -1.92035  -1.32456  -1.32381  -1.32127  -1.20436
 Alpha  occ. eigenvalues --   -1.19897  -1.19700  -1.11033  -1.08923  -1.03450
 Alpha  occ. eigenvalues --   -0.92086  -0.61809  -0.51533  -0.50973  -0.50585
 Alpha  occ. eigenvalues --   -0.48643  -0.48443  -0.48207  -0.40453  -0.40221
 Alpha  occ. eigenvalues --   -0.38750  -0.36542  -0.36216
 Alpha virt. eigenvalues --   -0.26771  -0.17586  -0.16698  -0.15602  -0.14690
 Alpha virt. eigenvalues --   -0.13205  -0.12486  -0.08761  -0.08296  -0.07807
 Alpha virt. eigenvalues --   -0.06076  -0.06005  -0.05734  -0.05253  -0.04044

 Mulliken atomic charges:
              1
     1  O   -0.637184
     2  P    0.477385
     3  O   -0.637162
     4  Ca   1.513730
     5  Ca   1.581679
     6  O   -0.649213
     7  O   -0.649235
 Sum of Mulliken charges=   1.00000

 Dipole moment (field-independent basis, Debye):
    X=    21.1327    Y=     0.0031    Z=     0.0012  Tot=    21.1327
 Quadrupole moment (field-independent basis, Debye-Ang):
   XX=    29.9844   YY=   -65.5085   ZZ=   -58.2806
   XY=     0.0314   XZ=    -0.0360   YZ=     0.0005

 Normal termination of Gaussian 03 at Fri Jun 12 17:49:22 2015.
