 Gaussian 03, Revision E.01,
 Gaussian 03:  EM64T-G03RevE.01 11-Sep-2007

 ----------------------------------------------------
 # b3lyp/6-31+G(d,p) int=ultrafine pop=(ReadRadii,MK)
 ----------------------------------------------------

 -----------------------------------------
 mol_17.28.31.pdbcccc_plusQ.z58555.zip.xyz
 -----------------------------------------
 Symbolic Z-matrix:
 Charge =  1 Multiplicity = 1

                         Standard orientation:
 ---------------------------------------------------------------------
 Center     Atomic     Atomic              Coordinates (Angstroms)
 Number     Number      Type              X           Y           Z
 ---------------------------------------------------------------------
    1          8             0       -1.605963   -1.764096   -0.000180
    2          8             0        0.598610    1.911572   -0.000690
    3         20             0        2.618009    1.126711    0.000530
    4          8             0        2.524838   -0.992199   -0.785430
    5          8             0        2.523258   -0.991949    0.786830
    6         20             0        0.669957   -1.928748   -0.001020
    7         15             0       -3.008222   -1.120835    0.000780
    8         20             0       -1.488040    2.209854   -0.000500
    9          8             0       -2.900141    0.418695    0.000480
 ---------------------------------------------------------------------

 SCF Done:  E(RB+HF-LYP) =  -2750.19528285     A.U. after    8 cycles

 The electronic state is 1-A.
 Alpha  occ. eigenvalues -- -145.50557-145.49151-145.44963 -77.30076 -19.27948
 Alpha  occ. eigenvalues --  -19.27718 -19.21610 -19.21605 -19.13687 -15.57448
 Alpha  occ. eigenvalues --  -15.56019 -15.51893 -12.70703 -12.70651 -12.70489
 Alpha  occ. eigenvalues --  -12.69281 -12.69240 -12.69066 -12.65111 -12.65100
 Alpha  occ. eigenvalues --  -12.64955  -6.75557  -4.92003  -4.91782  -4.91335
 Alpha  occ. eigenvalues --   -1.94673  -1.93254  -1.89289  -1.22529  -1.22392
 Alpha  occ. eigenvalues --   -1.21569  -1.21295  -1.21042  -1.20898  -1.17353
 Alpha  occ. eigenvalues --   -1.17021  -1.16486  -1.13796  -1.08476  -1.03945
 Alpha  occ. eigenvalues --   -0.87730  -0.85456  -0.67711  -0.57273  -0.52654
 Alpha  occ. eigenvalues --   -0.52570  -0.45748  -0.45014  -0.43896  -0.43682
 Alpha  occ. eigenvalues --   -0.42253  -0.40555  -0.34227  -0.32856  -0.32016
 Alpha  occ. eigenvalues --   -0.32000  -0.30182
 Alpha virt. eigenvalues --   -0.19763  -0.19226  -0.16271  -0.15021  -0.11990
 Alpha virt. eigenvalues --   -0.10781  -0.10373  -0.09773  -0.08367  -0.07562
 Alpha virt. eigenvalues --   -0.07075  -0.06538  -0.06407  -0.05860  -0.05708

 Mulliken atomic charges:
              1
     1  O   -0.696175
     2  O   -1.288457
     3  Ca   1.423766
     4  O   -0.665374
     5  O   -0.665349
     6  Ca   1.447425
     7  P    0.682320
     8  Ca   1.477484
     9  O   -0.715639
 Sum of Mulliken charges=   1.00000

 Dipole moment (field-independent basis, Debye):
    X=    -2.1683    Y=     5.4477    Z=    -0.0062  Tot=     5.8634
 Quadrupole moment (field-independent basis, Debye-Ang):
   XX=   -58.5200   YY=   -37.4527   ZZ=   -77.4777
   XY=    -0.0800   XZ=     0.0078   YZ=     0.0220

 Normal termination of Gaussian 03 at Fri Jun 12 18:09:24 2015.
