 Gaussian 03, Revision E.01,
 Gaussian 03:  EM64T-G03RevE.01 11-Sep-2007

 ----------------------------------------------------
 # b3lyp/6-31+G(d,p) int=ultrafine pop=(ReadRadii,MK)
 ----------------------------------------------------

 -------------------------------------
 mol_17.28.5.pdbc_plusQ.z58585.zip.xyz
 -------------------------------------
 Symbolic Z-matrix:
 Charge =  1 Multiplicity = 1

                         Standard orientation:
 ---------------------------------------------------------------------
 Center     Atomic     Atomic              Coordinates (Angstroms)
 Number     Number      Type              X           Y           Z
 ---------------------------------------------------------------------
    1          8             0        4.532090   -0.492498    0.744240
    2          8             0        4.510720   -0.748698   -0.530830
    3         20             0        2.415969    0.298201   -0.062720
    4          8             0        0.990398    1.918290   -0.047110
    5          8             0        0.615980   -1.305830   -0.050360
    6         15             0       -0.828600   -1.750681   -0.043060
    7         20             0       -4.221011   -0.396732    0.058460
    8          8             0       -1.834980   -0.511231   -0.001250
    9         20             0       -1.099192    1.867529   -0.009320
 ---------------------------------------------------------------------

 SCF Done:  E(RB+HF-LYP) =  -2749.45601799     A.U. after   10 cycles

 The electronic state is 1-A.
 Alpha  occ. eigenvalues -- -145.52468-145.51962-145.49724 -77.31925 -19.34879
 Alpha  occ. eigenvalues --  -19.34516 -19.34454 -19.33045 -19.19545 -15.59430
 Alpha  occ. eigenvalues --  -15.58651 -15.56597 -12.72669 -12.72603 -12.72502
 Alpha  occ. eigenvalues --  -12.71872 -12.71870 -12.71807 -12.69859 -12.69809
 Alpha  occ. eigenvalues --  -12.69661  -6.77609  -4.93977  -4.93833  -4.93399
 Alpha  occ. eigenvalues --   -1.96720  -1.95362  -1.93869  -1.28285  -1.24499
 Alpha  occ. eigenvalues --   -1.24288  -1.24050  -1.22935  -1.22818  -1.22752
 Alpha  occ. eigenvalues --   -1.21809  -1.21699  -1.20364  -1.18010  -1.12329
 Alpha  occ. eigenvalues --   -0.93702  -0.87597  -0.71309  -0.61052  -0.57516
 Alpha  occ. eigenvalues --   -0.56903  -0.56140  -0.55352  -0.54414  -0.49800
 Alpha  occ. eigenvalues --   -0.49093  -0.43717  -0.39141  -0.37222  -0.37008
 Alpha  occ. eigenvalues --   -0.33824  -0.32182
 Alpha virt. eigenvalues --   -0.24674  -0.22899  -0.20136  -0.15430  -0.15348
 Alpha virt. eigenvalues --   -0.13730  -0.12750  -0.11591  -0.10375  -0.09612
 Alpha virt. eigenvalues --   -0.09091  -0.08436  -0.07676  -0.06834  -0.06134

 Mulliken atomic charges:
              1
     1  O   -0.860029
     2  O   -0.858250
     3  Ca   1.347956
     4  O   -1.320305
     5  O   -0.759772
     6  P    0.822011
     7  Ca   1.929896
     8  O   -0.841293
     9  Ca   1.539786
 Sum of Mulliken charges=   1.00000

 Dipole moment (field-independent basis, Debye):
    X=   -74.1104    Y=     5.2522    Z=    -0.5151  Tot=    74.2981
 Quadrupole moment (field-independent basis, Debye-Ang):
   XX=   -44.2932   YY=   -67.4054   ZZ=   -72.9321
   XY=    16.5005   XZ=    -6.9062   YZ=    -0.1663

 Normal termination of Gaussian 03 at Fri Jun 12 18:11:20 2015.
