 Gaussian 03, Revision E.01,
 Gaussian 03:  EM64T-G03RevE.01 11-Sep-2007

 ----------------------------------------------------
 # b3lyp/6-31+G(d,p) int=ultrafine pop=(ReadRadii,MK)
 ----------------------------------------------------

 ----------------------------------------
 mol_17.25.9.pdbcccc_plusQ.z58367.zip.xyz
 ----------------------------------------
 Symbolic Z-matrix:
 Charge =  1 Multiplicity = 1

                         Standard orientation:
 ---------------------------------------------------------------------
 Center     Atomic     Atomic              Coordinates (Angstroms)
 Number     Number      Type              X           Y           Z
 ---------------------------------------------------------------------
    1          8             0        0.680449   -1.560724    0.338230
    2          8             0        0.658975    0.706986    1.422180
    3         15             0        0.021754   -0.803058    1.657520
    4         20             0        2.164399    0.118605   -0.255240
    5          8             0       -1.626107   -0.618048    1.217830
    6          8             0       -2.061751    0.063149   -0.079700
    7          8             0        0.509135    0.756875   -1.583260
    8         20             0       -0.713122    1.897107   -0.041060
    9         20             0       -0.731873   -1.152713   -1.472950
 ---------------------------------------------------------------------

 SCF Done:  E(RB+HF-LYP) =  -2750.21031238     A.U. after    9 cycles

 The electronic state is 1-A.
 Alpha  occ. eigenvalues -- -145.50869-145.50011-145.49985 -77.26407 -19.28789
 Alpha  occ. eigenvalues --  -19.25450 -19.22793 -19.22690 -19.16532 -15.57703
 Alpha  occ. eigenvalues --  -15.56827 -15.56796 -12.70909 -12.70875 -12.70828
 Alpha  occ. eigenvalues --  -12.70025 -12.70001 -12.69999 -12.69972 -12.69967
 Alpha  occ. eigenvalues --  -12.69944  -6.71540  -4.87957  -4.87832  -4.87310
 Alpha  occ. eigenvalues --   -1.95005  -1.94101  -1.94033  -1.23098  -1.22756
 Alpha  occ. eigenvalues --   -1.22394  -1.22257  -1.21620  -1.21581  -1.21365
 Alpha  occ. eigenvalues --   -1.21285  -1.20981  -1.13461  -1.06782  -1.02145
 Alpha  occ. eigenvalues --   -0.93478  -0.91494  -0.64963  -0.55628  -0.52514
 Alpha  occ. eigenvalues --   -0.51436  -0.48129  -0.46905  -0.43999  -0.42054
 Alpha  occ. eigenvalues --   -0.39350  -0.38430  -0.36829  -0.35958  -0.35730
 Alpha  occ. eigenvalues --   -0.35286  -0.32565
 Alpha virt. eigenvalues --   -0.20680  -0.18348  -0.17791  -0.13822  -0.12896
 Alpha virt. eigenvalues --   -0.11289  -0.10837  -0.09448  -0.09243  -0.08194
 Alpha virt. eigenvalues --   -0.07382  -0.06429  -0.06174  -0.05876  -0.04921

 Mulliken atomic charges:
              1
     1  O   -1.047781
     2  O   -1.047601
     3  P    1.054574
     4  Ca   1.417153
     5  O   -0.446350
     6  O   -0.653267
     7  O   -1.251258
     8  Ca   1.489925
     9  Ca   1.484605
 Sum of Mulliken charges=   1.00000

 Dipole moment (field-independent basis, Debye):
    X=     5.1509    Y=     3.6910    Z=    -7.3972  Tot=     9.7404
 Quadrupole moment (field-independent basis, Debye-Ang):
   XX=   -52.7387   YY=   -51.1602   ZZ=   -81.7849
   XY=    -3.5375   XZ=     8.0683   YZ=    18.5840

 Normal termination of Gaussian 03 at Fri Jun 12 17:59:49 2015.
