 Gaussian 03, Revision E.01,
 Gaussian 03:  EM64T-G03RevE.01 11-Sep-2007

 ----------------------------------------------------
 # b3lyp/6-31+G(d,p) int=ultrafine pop=(ReadRadii,MK)
 ----------------------------------------------------

 ---------------------------------------
 mol_17.25.51.pdbcc_plusQ.z58357.zip.xyz
 ---------------------------------------
 Symbolic Z-matrix:
 Charge =  1 Multiplicity = 1

                         Standard orientation:
 ---------------------------------------------------------------------
 Center     Atomic     Atomic              Coordinates (Angstroms)
 Number     Number      Type              X           Y           Z
 ---------------------------------------------------------------------
    1          8             0       -2.859640    0.837069    0.768290
    2          8             0       -2.860470    0.836719   -0.766990
    3         15             0       -1.794991    2.033760   -0.000160
    4         20             0        1.201981   -0.269687   -0.001610
    5         20             0        5.071980    0.330266    0.000850
    6          8             0       -0.248778   -1.805128   -0.785480
    7          8             0       -0.247938   -1.804358    0.785180
    8         20             0       -2.286258   -1.384260    0.000770
    9          8             0       -0.386821    1.431601   -0.000730
 ---------------------------------------------------------------------

 SCF Done:  E(RB+HF-LYP) =  -2750.01835028     A.U. after   13 cycles

 The electronic state is 1-A.
 Alpha  occ. eigenvalues -- -145.53944-145.50457-145.48069 -77.31049 -19.34333
 Alpha  occ. eigenvalues --  -19.34268 -19.26541 -19.22616 -19.22338 -15.61001
 Alpha  occ. eigenvalues --  -15.57278 -15.54968 -12.74138 -12.74137 -12.74125
 Alpha  occ. eigenvalues --  -12.70517 -12.70472 -12.70381 -12.68192 -12.68146
 Alpha  occ. eigenvalues --  -12.68080  -6.76292  -4.92675  -4.92583  -4.92034
 Alpha  occ. eigenvalues --   -1.98065  -1.94439  -1.92233  -1.25509  -1.25324
 Alpha  occ. eigenvalues --   -1.25321  -1.25167  -1.22547  -1.21877  -1.20832
 Alpha  occ. eigenvalues --   -1.19914  -1.19906  -1.19791  -1.10302  -1.05093
 Alpha  occ. eigenvalues --   -0.98269  -0.86340  -0.71101  -0.58957  -0.57254
 Alpha  occ. eigenvalues --   -0.56170  -0.51955  -0.46591  -0.45898  -0.44929
 Alpha  occ. eigenvalues --   -0.44724  -0.43220  -0.40640  -0.40341  -0.33827
 Alpha  occ. eigenvalues --   -0.31105  -0.29902
 Alpha virt. eigenvalues --   -0.19122  -0.17774  -0.17181  -0.15797  -0.15499
 Alpha virt. eigenvalues --   -0.14622  -0.11320  -0.10626  -0.08938  -0.08756
 Alpha virt. eigenvalues --   -0.08411  -0.08017  -0.06754  -0.06434  -0.06226

 Mulliken atomic charges:
              1
     1  O   -0.406917
     2  O   -0.408633
     3  P    0.793141
     4  Ca   1.137229
     5  Ca   0.435672
     6  O   -0.659720
     7  O   -0.653742
     8  Ca   1.479865
     9  O   -0.716894
 Sum of Mulliken charges=   1.00000

 Dipole moment (field-independent basis, Debye):
    X=     7.3518    Y=    -0.8239    Z=     0.0327  Tot=     7.3979
 Quadrupole moment (field-independent basis, Debye-Ang):
   XX=    17.7215   YY=   -85.5313   ZZ=   -85.8897
   XY=    24.6791   XZ=    -0.0193   YZ=    -0.0373

 Normal termination of Gaussian 03 at Fri Jun 12 17:59:24 2015.
