 Gaussian 03, Revision E.01,
 Gaussian 03:  EM64T-G03RevE.01 11-Sep-2007

 ----------------------------------------------------
 # b3lyp/6-31+G(d,p) int=ultrafine pop=(ReadRadii,MK)
 ----------------------------------------------------

 -----------------------------------------
 mol_17.25.17.pdbcccc_plusQ.z58324.zip.xyz
 -----------------------------------------
 Symbolic Z-matrix:
 Charge =  1 Multiplicity = 1

                         Standard orientation:
 ---------------------------------------------------------------------
 Center     Atomic     Atomic              Coordinates (Angstroms)
 Number     Number      Type              X           Y           Z
 ---------------------------------------------------------------------
    1          8             0       -3.503369    0.717321   -0.515220
    2          8             0       -1.017149    1.687941   -0.589350
    3         15             0       -2.200589    1.153941    0.293210
    4         20             0       -3.415329   -1.444049   -0.097750
    5          8             0       -1.588269   -0.420789    0.715200
    6         20             0        0.591491    0.223531    0.106880
    7          8             0        2.807571    0.222841    0.736080
    8          8             0        2.630341   -0.613359   -0.587960
    9         20             0        4.742631   -0.282519   -0.132540
 ---------------------------------------------------------------------

 SCF Done:  E(RB+HF-LYP) =  -2750.14918022     A.U. after   18 cycles

 The electronic state is 1-A.
 Alpha  occ. eigenvalues -- -145.56504-145.51000-145.43281 -77.22297 -19.24858
 Alpha  occ. eigenvalues --  -19.24797 -19.19637 -19.18256 -19.17339 -15.63322
 Alpha  occ. eigenvalues --  -15.57897 -15.50205 -12.76567 -12.76505 -12.76424
 Alpha  occ. eigenvalues --  -12.71124 -12.71033 -12.71022 -12.63453 -12.63419
 Alpha  occ. eigenvalues --  -12.63253  -6.67372  -4.83781  -4.83650  -4.83332
 Alpha  occ. eigenvalues --   -2.00261  -1.95050  -1.87649  -1.27861  -1.27794
 Alpha  occ. eigenvalues --   -1.27550  -1.22714  -1.22618  -1.22224  -1.16100
 Alpha  occ. eigenvalues --   -1.15564  -1.15376  -1.07206  -1.04333  -0.98531
 Alpha  occ. eigenvalues --   -0.97373  -0.88675  -0.58380  -0.48165  -0.47835
 Alpha  occ. eigenvalues --   -0.47206  -0.46713  -0.45242  -0.44756  -0.41255
 Alpha  occ. eigenvalues --   -0.37964  -0.36933  -0.35450  -0.34896  -0.34585
 Alpha  occ. eigenvalues --   -0.32867  -0.25859
 Alpha virt. eigenvalues --   -0.24266  -0.19672  -0.15047  -0.14513  -0.12592
 Alpha virt. eigenvalues --   -0.11763  -0.10930  -0.10379  -0.09396  -0.07939
 Alpha virt. eigenvalues --   -0.07400  -0.06427  -0.06111  -0.05377  -0.05163

 Mulliken atomic charges:
              1
     1  O   -0.780021
     2  O   -0.781993
     3  P    0.688170
     4  Ca   1.248902
     5  O   -1.002373
     6  Ca   1.456111
     7  O   -0.645997
     8  O   -0.659266
     9  Ca   1.476468
 Sum of Mulliken charges=   1.00000

 Dipole moment (field-independent basis, Debye):
    X=    13.5473    Y=   -11.3475    Z=    -0.4116  Tot=    17.6767
 Quadrupole moment (field-independent basis, Debye-Ang):
   XX=    64.0942   YY=   -73.8509   ZZ=   -85.1075
   XY=    31.7487   XZ=    -6.6368   YZ=     4.3947

 Normal termination of Gaussian 03 at Fri Jun 12 17:58:52 2015.
