 Gaussian 03, Revision E.01,
 Gaussian 03:  EM64T-G03RevE.01 11-Sep-2007

 ----------------------------------------------------
 # b3lyp/6-31+G(d,p) int=ultrafine pop=(ReadRadii,MK)
 ----------------------------------------------------

 ----------------------------------------
 mol_17.26.50.pdbccc_plusQ.z58462.zip.xyz
 ----------------------------------------
 Symbolic Z-matrix:
 Charge =  1 Multiplicity = 1

                         Standard orientation:
 ---------------------------------------------------------------------
 Center     Atomic     Atomic              Coordinates (Angstroms)
 Number     Number      Type              X           Y           Z
 ---------------------------------------------------------------------
    1          8             0        0.468355   -1.517540   -0.136480
    2          8             0       -1.944406   -1.258894    0.458640
    3          8             0       -3.013067   -0.401216    1.131020
    4         20             0       -2.784089    0.362564   -0.918960
    5          8             0       -0.649030    0.845398   -0.285470
    6         15             0       -0.415887   -0.530392    0.716620
    7         20             0        2.687004   -1.324716   -0.354740
    8          8             0        2.966351    0.762414   -0.080450
    9         20             0        1.277718    1.987881    0.301330
 ---------------------------------------------------------------------

 SCF Done:  E(RB+HF-LYP) =  -2750.12385965     A.U. after    9 cycles

 The electronic state is 1-A.
 Alpha  occ. eigenvalues -- -145.52460-145.49021-145.48652 -77.25667 -19.27821
 Alpha  occ. eigenvalues --  -19.22837 -19.22139 -19.21059 -19.12477 -15.59291
 Alpha  occ. eigenvalues --  -15.55906 -15.55547 -12.72515 -12.72454 -12.72415
 Alpha  occ. eigenvalues --  -12.69156 -12.69101 -12.68961 -12.68797 -12.68720
 Alpha  occ. eigenvalues --  -12.68618  -6.70818  -4.87215  -4.87158  -4.86610
 Alpha  occ. eigenvalues --   -1.96469  -1.93143  -1.92785  -1.24744  -1.23995
 Alpha  occ. eigenvalues --   -1.23681  -1.21016  -1.20803  -1.20626  -1.20377
 Alpha  occ. eigenvalues --   -1.20121  -1.19561  -1.12443  -1.05474  -1.01514
 Alpha  occ. eigenvalues --   -0.89722  -0.86718  -0.63915  -0.53425  -0.51605
 Alpha  occ. eigenvalues --   -0.50595  -0.47028  -0.44589  -0.42847  -0.41262
 Alpha  occ. eigenvalues --   -0.38430  -0.33903  -0.32804  -0.32485  -0.31766
 Alpha  occ. eigenvalues --   -0.30861  -0.30583
 Alpha virt. eigenvalues --   -0.20706  -0.18578  -0.17494  -0.12515  -0.12233
 Alpha virt. eigenvalues --   -0.10368  -0.09895  -0.09383  -0.08639  -0.08230
 Alpha virt. eigenvalues --   -0.07493  -0.07341  -0.07103  -0.05903  -0.05761

 Mulliken atomic charges:
              1
     1  O   -0.883206
     2  O   -0.500918
     3  O   -0.530066
     4  Ca   1.463845
     5  O   -1.039607
     6  P    0.812865
     7  Ca   1.441234
     8  O   -1.187001
     9  Ca   1.422853
 Sum of Mulliken charges=   1.00000

 Dipole moment (field-independent basis, Debye):
    X=     0.3947    Y=     5.2319    Z=    -8.2441  Tot=     9.7721
 Quadrupole moment (field-independent basis, Debye-Ang):
   XX=   -42.2241   YY=   -46.7539   ZZ=   -72.5142
   XY=   -32.6972   XZ=    26.1350   YZ=     7.1034

 Normal termination of Gaussian 03 at Fri Jun 12 18:01:56 2015.
