 Gaussian 03, Revision E.01,
 Gaussian 03:  EM64T-G03RevE.01 11-Sep-2007

 ----------------------------------------------------
 # b3lyp/6-31+G(d,p) int=ultrafine pop=(ReadRadii,MK)
 ----------------------------------------------------

 ---------------------------------------
 mol_17.27.9.pdbccc_plusQ.z58530.zip.xyz
 ---------------------------------------
 Symbolic Z-matrix:
 Charge =  1 Multiplicity = 1

                         Standard orientation:
 ---------------------------------------------------------------------
 Center     Atomic     Atomic              Coordinates (Angstroms)
 Number     Number      Type              X           Y           Z
 ---------------------------------------------------------------------
    1          8             0        0.639360    0.414973   -1.501161
    2          8             0        0.422138    1.046772    1.403229
    3         20             0       -0.726414    1.915489   -0.337861
    4          8             0       -2.113919    0.143016   -0.063181
    5          8             0       -1.551907   -1.016203   -0.878641
    6         15             0        0.118514   -1.142309   -1.425711
    7          8             0        0.836665   -1.604617   -0.010581
    8         20             0        2.163030    0.235896    0.311409
    9         20             0       -0.818437   -0.888231    1.515869
 ---------------------------------------------------------------------

 SCF Done:  E(RB+HF-LYP) =  -2750.21036012     A.U. after    8 cycles

 The electronic state is 1-A.
 Alpha  occ. eigenvalues -- -145.50968-145.50033-145.49664 -77.27042 -19.28853
 Alpha  occ. eigenvalues --  -19.25351 -19.23429 -19.23034 -19.16660 -15.57804
 Alpha  occ. eigenvalues --  -15.56858 -15.56457 -12.71013 -12.70976 -12.70927
 Alpha  occ. eigenvalues --  -12.70051 -12.70041 -12.69996 -12.69677 -12.69619
 Alpha  occ. eigenvalues --  -12.69606  -6.72137  -4.88564  -4.88425  -4.87902
 Alpha  occ. eigenvalues --   -1.95105  -1.94141  -1.93670  -1.23171  -1.22842
 Alpha  occ. eigenvalues --   -1.22456  -1.22336  -1.21698  -1.21425  -1.21273
 Alpha  occ. eigenvalues --   -1.21081  -1.20712  -1.13182  -1.07398  -1.02697
 Alpha  occ. eigenvalues --   -0.93103  -0.91568  -0.65298  -0.55843  -0.52714
 Alpha  occ. eigenvalues --   -0.51423  -0.48526  -0.47291  -0.44384  -0.42317
 Alpha  occ. eigenvalues --   -0.39784  -0.38427  -0.37055  -0.36741  -0.35861
 Alpha  occ. eigenvalues --   -0.34628  -0.32792
 Alpha virt. eigenvalues --   -0.20650  -0.18459  -0.17445  -0.13979  -0.12920
 Alpha virt. eigenvalues --   -0.11313  -0.10748  -0.09643  -0.08857  -0.08055
 Alpha virt. eigenvalues --   -0.07441  -0.06425  -0.06170  -0.05806  -0.05310

 Mulliken atomic charges:
              1
     1  O   -1.037002
     2  O   -1.263880
     3  Ca   1.494654
     4  O   -0.621166
     5  O   -0.486829
     6  P    1.074371
     7  O   -1.033429
     8  Ca   1.421813
     9  Ca   1.451469
 Sum of Mulliken charges=   1.00000

 Dipole moment (field-independent basis, Debye):
    X=     4.9135    Y=     5.8023    Z=     5.8487  Tot=     9.5925
 Quadrupole moment (field-independent basis, Debye-Ang):
   XX=   -52.0491   YY=   -58.0713   ZZ=   -75.4242
   XY=    -2.2215   XZ=    -5.9950   YZ=   -22.4566

 Normal termination of Gaussian 03 at Fri Jun 12 18:08:19 2015.
