 Gaussian 03, Revision E.01,
 Gaussian 03:  EM64T-G03RevE.01 11-Sep-2007

 ----------------------------------------------------
 # b3lyp/6-31+G(d,p) int=ultrafine pop=(ReadRadii,MK)
 ----------------------------------------------------

 ------------------------------------------------
 mol_17.29.23.pdbccc.z57187c_plusQ.z58604.zip.xyz
 ------------------------------------------------
 Symbolic Z-matrix:
 Charge =  1 Multiplicity = 1

                         Standard orientation:
 ---------------------------------------------------------------------
 Center     Atomic     Atomic              Coordinates (Angstroms)
 Number     Number      Type              X           Y           Z
 ---------------------------------------------------------------------
    1          8             0       -0.498530   -0.012192   -1.701309
    2         20             0        1.284866   -1.227833   -0.924169
    3          8             0        2.561390    0.082903    0.390881
    4          8             0        1.259907    0.756066    0.701411
    5         15             0        0.046481   -0.056899    1.763261
    6          8             0       -1.159344    0.877425    1.118021
    7         20             0       -0.084059    1.947820   -0.698999
    8          8             0       -0.167853   -1.449910    0.924381
    9         20             0       -2.033896   -0.779029   -0.272629
 ---------------------------------------------------------------------

 SCF Done:  E(RB+HF-LYP) =  -2750.19417659     A.U. after    9 cycles

 The electronic state is 1-A.
 Alpha  occ. eigenvalues -- -145.51673-145.51594-145.48704 -77.27302 -19.29095
 Alpha  occ. eigenvalues --  -19.23568 -19.23486 -19.23300 -19.17350 -15.58484
 Alpha  occ. eigenvalues --  -15.58420 -15.55552 -12.71698 -12.71660 -12.71627
 Alpha  occ. eigenvalues --  -12.71612 -12.71592 -12.71547 -12.68781 -12.68747
 Alpha  occ. eigenvalues --  -12.68646  -6.72399  -4.88804  -4.88690  -4.88157
 Alpha  occ. eigenvalues --   -1.95724  -1.95669  -1.92862  -1.23976  -1.23553
 Alpha  occ. eigenvalues --   -1.23412  -1.23061  -1.23030  -1.22529  -1.21067
 Alpha  occ. eigenvalues --   -1.20537  -1.19966  -1.13363  -1.07566  -1.03109
 Alpha  occ. eigenvalues --   -0.92320  -0.90590  -0.65535  -0.55298  -0.53389
 Alpha  occ. eigenvalues --   -0.51714  -0.49580  -0.46914  -0.44122  -0.42328
 Alpha  occ. eigenvalues --   -0.40297  -0.37798  -0.37631  -0.36827  -0.35223
 Alpha  occ. eigenvalues --   -0.33499  -0.32026
 Alpha virt. eigenvalues --   -0.20903  -0.19068  -0.17413  -0.13458  -0.12276
 Alpha virt. eigenvalues --   -0.11628  -0.10496  -0.10037  -0.08917  -0.08220
 Alpha virt. eigenvalues --   -0.07988  -0.06859  -0.06592  -0.06167  -0.05827

 Mulliken atomic charges:
              1
     1  O   -1.261665
     2  Ca   1.417390
     3  O   -0.569150
     4  O   -0.590666
     5  P    1.101623
     6  O   -1.001228
     7  Ca   1.493692
     8  O   -1.018988
     9  Ca   1.428992
 Sum of Mulliken charges=   1.00000

 Dipole moment (field-independent basis, Debye):
    X=    -6.9412    Y=    -0.0926    Z=    -8.5332  Tot=    11.0002
 Quadrupole moment (field-independent basis, Debye-Ang):
   XX=   -58.4089   YY=   -40.8229   ZZ=   -88.3324
   XY=    -0.3061   XZ=    -9.1372   YZ=    -0.1657

 Normal termination of Gaussian 03 at Fri Jun 12 18:12:20 2015.
