 Gaussian 03, Revision E.01,
 Gaussian 03:  EM64T-G03RevE.01 11-Sep-2007

 ----------------------------------------------------
 # b3lyp/6-31+G(d,p) int=ultrafine pop=(ReadRadii,MK)
 ----------------------------------------------------

 -----------------------------------------
 mol_17.23.48.pdbcccc_plusQ.z58249.zip.xyz
 -----------------------------------------
 Symbolic Z-matrix:
 Charge =  1 Multiplicity = 1

                         Standard orientation:
 ---------------------------------------------------------------------
 Center     Atomic     Atomic              Coordinates (Angstroms)
 Number     Number      Type              X           Y           Z
 ---------------------------------------------------------------------
    1          8             0       -2.084531   -2.363668   -0.006689
    2         15             0       -2.942400   -1.094357   -0.003059
    3         20             0        0.152290   -1.555720    0.004391
    4          8             0       -1.930249    0.104652    0.007471
    5          8             0        1.109192    0.589049   -0.007039
    6          8             0        2.356750   -1.879132    0.009911
    7         20             0        3.262341    0.084997   -0.003769
    8         20             0       -0.608407    2.019271   -0.002819
    9          8             0       -0.949724    4.229651    0.007571
 ---------------------------------------------------------------------

 SCF Done:  E(RB+HF-LYP) =  -2750.06647053     A.U. after   21 cycles

 The electronic state is 1-A.
 Alpha  occ. eigenvalues -- -145.54133-145.48617-145.48524 -77.30527 -19.28855
 Alpha  occ. eigenvalues --  -19.27780 -19.26226 -19.22354 -19.22104 -15.60993
 Alpha  occ. eigenvalues --  -15.55524 -15.55417 -12.74238 -12.74132 -12.74110
 Alpha  occ. eigenvalues --  -12.68813 -12.68696 -12.68694 -12.68616 -12.68585
 Alpha  occ. eigenvalues --  -12.68461  -6.76130  -4.92565  -4.92336  -4.91915
 Alpha  occ. eigenvalues --   -1.98148  -1.92839  -1.92729  -1.25899  -1.25491
 Alpha  occ. eigenvalues --   -1.25225  -1.20954  -1.20815  -1.20788  -1.20462
 Alpha  occ. eigenvalues --   -1.20303  -1.19862  -1.14438  -1.08684  -0.96479
 Alpha  occ. eigenvalues --   -0.95399  -0.94870  -0.67796  -0.56699  -0.53983
 Alpha  occ. eigenvalues --   -0.53345  -0.45783  -0.44347  -0.42758  -0.42329
 Alpha  occ. eigenvalues --   -0.40510  -0.40269  -0.40016  -0.38736  -0.37819
 Alpha  occ. eigenvalues --   -0.37753  -0.35141
 Alpha virt. eigenvalues --   -0.33046  -0.22560  -0.20457  -0.16759  -0.14175
 Alpha virt. eigenvalues --   -0.14047  -0.12418  -0.11259  -0.10620  -0.08828
 Alpha virt. eigenvalues --   -0.08722  -0.07495  -0.07310  -0.07149  -0.05567

 Mulliken atomic charges:
              1
     1  O   -0.620935
     2  P    0.634338
     3  Ca   1.447864
     4  O   -0.751553
     5  O   -1.226260
     6  O   -0.931386
     7  Ca   1.491303
     8  Ca   1.395078
     9  O   -0.438448
 Sum of Mulliken charges=   1.00000

 Dipole moment (field-independent basis, Debye):
    X=     9.2825    Y=     2.0580    Z=    -0.0551  Tot=     9.5081
 Quadrupole moment (field-independent basis, Debye-Ang):
   XX=   -27.8349   YY=  -102.7475   ZZ=   -72.9963
   XY=    17.2024   XZ=    -0.1246   YZ=    -0.1168

 Normal termination of Gaussian 03 at Fri Jun 12 17:55:52 2015.
