 Gaussian 03, Revision E.01,
 Gaussian 03:  EM64T-G03RevE.01 11-Sep-2007

 ----------------------------------------------------
 # b3lyp/6-31+G(d,p) int=ultrafine pop=(ReadRadii,MK)
 ----------------------------------------------------

 -----------------------------------------
 mol_16.4.25.pdbc_plusQ.out.z51575.zip.xyz
 -----------------------------------------
 Symbolic Z-matrix:
 Charge =  1 Multiplicity = 1

                         Standard orientation:
 ---------------------------------------------------------------------
 Center     Atomic     Atomic              Coordinates (Angstroms)
 Number     Number      Type              X           Y           Z
 ---------------------------------------------------------------------
    1          8             0       -1.442140   -1.273478    0.000100
    2          8             0        1.711709    0.000060    0.787330
    3         20             0        0.761532    1.858412   -0.000310
    4         15             0       -2.319761   -0.000138    0.000320
    5          8             0       -1.442222    1.273402   -0.000810
    6         20             0        0.761727   -1.858298   -0.000550
    7          8             0        1.714059   -0.000010   -0.785070
 ---------------------------------------------------------------------

 SCF Done:  E(RB+HF-LYP) =  -1997.33372449     A.U. after    6 cycles

 The electronic state is 1-A.
 Alpha  occ. eigenvalues -- -145.53245-145.53243 -77.30158 -19.27951 -19.27945
 Alpha  occ. eigenvalues --  -19.25611 -19.25561 -15.60091 -15.60090 -12.73306
 Alpha  occ. eigenvalues --  -12.73305 -12.73288 -12.73287 -12.73206 -12.73204
 Alpha  occ. eigenvalues --   -6.75640  -4.92079  -4.91864  -4.91420  -1.97234
 Alpha  occ. eigenvalues --   -1.97208  -1.25763  -1.24804  -1.24790  -1.24724
 Alpha  occ. eigenvalues --   -1.24723  -1.24301  -1.13922  -1.08552  -1.08248
 Alpha  occ. eigenvalues --   -0.89519  -0.67702  -0.57279  -0.52820  -0.52598
 Alpha  occ. eigenvalues --   -0.48992  -0.47944  -0.46118  -0.45759  -0.43898
 Alpha  occ. eigenvalues --   -0.40697  -0.37190  -0.34164
 Alpha virt. eigenvalues --   -0.20456  -0.19849  -0.19631  -0.14480  -0.11367
 Alpha virt. eigenvalues --   -0.11279  -0.10319  -0.09665  -0.09042  -0.07375
 Alpha virt. eigenvalues --   -0.07215  -0.06431  -0.05961  -0.05215  -0.04856

 Mulliken atomic charges:
              1
     1  O   -0.709742
     2  O   -0.669018
     3  Ca   1.544045
     4  P    0.668616
     5  O   -0.709801
     6  Ca   1.544014
     7  O   -0.668115
 Sum of Mulliken charges=   1.00000

 Dipole moment (field-independent basis, Debye):
    X=     3.1442    Y=     0.0005    Z=    -0.0145  Tot=     3.1442
 Quadrupole moment (field-independent basis, Debye-Ang):
   XX=   -66.4961   YY=    -8.8702   ZZ=   -58.2532
   XY=    -0.0015   XZ=    -0.0205   YZ=     0.0080

 Normal termination of Gaussian 03 at Fri Jun 12 17:48:08 2015.
