 Gaussian 03, Revision E.01,
 Gaussian 03:  EM64T-G03RevE.01 11-Sep-2007

 ----------------------------------------------------
 # b3lyp/6-31+G(d,p) int=ultrafine pop=(ReadRadii,MK)
 ----------------------------------------------------

 ----------------------------------------
 mol_16.4.41.pdb_plusQ.out.z51591.zip.xyz
 ----------------------------------------
 Symbolic Z-matrix:
 Charge =  1 Multiplicity = 1

                         Standard orientation:
 ---------------------------------------------------------------------
 Center     Atomic     Atomic              Coordinates (Angstroms)
 Number     Number      Type              X           Y           Z
 ---------------------------------------------------------------------
    1          8             0       -1.726599   -0.033090    0.769932
    2          8             0       -1.728289   -0.032990   -0.766698
    3         15             0       -1.322990   -1.581790   -0.000668
    4          8             0        0.207340   -1.707871   -0.001758
    5          8             0        1.520472    1.399118   -0.001238
    6         20             0        2.207591   -0.594253    0.000792
    7         20             0       -0.524518    1.930529   -0.000388
 ---------------------------------------------------------------------

 SCF Done:  E(RB+HF-LYP) =  -1997.25492746     A.U. after    8 cycles

 The electronic state is 1-A.
 Alpha  occ. eigenvalues -- -145.52553-145.52280 -77.32937 -19.36112 -19.35999
 Alpha  occ. eigenvalues --  -19.28497 -19.15011 -15.59422 -15.59121 -12.72670
 Alpha  occ. eigenvalues --  -12.72595 -12.72504 -12.72354 -12.72324 -12.72204
 Alpha  occ. eigenvalues --   -6.78133  -4.94515  -4.94426  -4.93872  -1.96563
 Alpha  occ. eigenvalues --   -1.96235  -1.27062  -1.24347  -1.24145  -1.23912
 Alpha  occ. eigenvalues --   -1.23694  -1.23119  -1.22444  -1.12160  -0.99998
 Alpha  occ. eigenvalues --   -0.89422  -0.73016  -0.60901  -0.58873  -0.57869
 Alpha  occ. eigenvalues --   -0.53890  -0.48261  -0.46900  -0.42437  -0.42249
 Alpha  occ. eigenvalues --   -0.35635  -0.33599  -0.33505
 Alpha virt. eigenvalues --   -0.20898  -0.19535  -0.19405  -0.16452  -0.12533
 Alpha virt. eigenvalues --   -0.11227  -0.11074  -0.11013  -0.10012  -0.08470
 Alpha virt. eigenvalues --   -0.07620  -0.06634  -0.06227  -0.05388  -0.05359

 Mulliken atomic charges:
              1
     1  O   -0.421815
     2  O   -0.423419
     3  P    0.848526
     4  O   -0.752864
     5  O   -1.188079
     6  Ca   1.477489
     7  Ca   1.460162
 Sum of Mulliken charges=   1.00000

 Dipole moment (field-independent basis, Debye):
    X=     3.9650    Y=     1.7109    Z=     0.0182  Tot=     4.3185
 Quadrupole moment (field-independent basis, Debye-Ang):
   XX=   -36.5321   YY=   -39.2934   ZZ=   -56.5026
   XY=   -26.7015   XZ=     0.0233   YZ=    -0.0086

 Normal termination of Gaussian 03 at Fri Jun 12 17:48:24 2015.
