 Gaussian 03, Revision E.01,
 Gaussian 03:  EM64T-G03RevE.01 11-Sep-2007

 ----------------------------------------------------
 # b3lyp/6-31+G(d,p) int=ultrafine pop=(ReadRadii,MK)
 ----------------------------------------------------

 -----------------------------------------
 mol_17.25.13.pdbcccc_plusQ.z58320.zip.xyz
 -----------------------------------------
 Symbolic Z-matrix:
 Charge =  1 Multiplicity = 1

                         Standard orientation:
 ---------------------------------------------------------------------
 Center     Atomic     Atomic              Coordinates (Angstroms)
 Number     Number      Type              X           Y           Z
 ---------------------------------------------------------------------
    1          8             0        0.837729   -1.604121   -0.014410
    2          8             0        0.420299    1.042455    1.405690
    3         20             0       -0.819829   -0.892790    1.512850
    4         15             0        0.120414   -1.137909   -1.428380
    5         20             0        2.163228    0.236074    0.314110
    6          8             0        0.641596    0.419267   -1.499950
    7          8             0       -1.550277   -1.013108   -0.881910
    8          8             0       -2.115871    0.142796   -0.063010
    9         20             0       -0.727101    1.915232   -0.334240
 ---------------------------------------------------------------------

 SCF Done:  E(RB+HF-LYP) =  -2750.21035358     A.U. after    8 cycles

 The electronic state is 1-A.
 Alpha  occ. eigenvalues -- -145.50970-145.50033-145.49663 -77.27046 -19.28846
 Alpha  occ. eigenvalues --  -19.25353 -19.23433 -19.23039 -19.16661 -15.57806
 Alpha  occ. eigenvalues --  -15.56858 -15.56455 -12.71015 -12.70978 -12.70929
 Alpha  occ. eigenvalues --  -12.70051 -12.70040 -12.69996 -12.69675 -12.69618
 Alpha  occ. eigenvalues --  -12.69604  -6.72141  -4.88568  -4.88428  -4.87906
 Alpha  occ. eigenvalues --   -1.95107  -1.94141  -1.93668  -1.23171  -1.22844
 Alpha  occ. eigenvalues --   -1.22455  -1.22337  -1.21698  -1.21424  -1.21273
 Alpha  occ. eigenvalues --   -1.21079  -1.20710  -1.13162  -1.07404  -1.02705
 Alpha  occ. eigenvalues --   -0.93113  -0.91571  -0.65297  -0.55840  -0.52716
 Alpha  occ. eigenvalues --   -0.51418  -0.48521  -0.47294  -0.44388  -0.42323
 Alpha  occ. eigenvalues --   -0.39790  -0.38426  -0.37057  -0.36742  -0.35862
 Alpha  occ. eigenvalues --   -0.34633  -0.32795
 Alpha virt. eigenvalues --   -0.20650  -0.18459  -0.17444  -0.13996  -0.12920
 Alpha virt. eigenvalues --   -0.11315  -0.10747  -0.09644  -0.08860  -0.08054
 Alpha virt. eigenvalues --   -0.07441  -0.06425  -0.06170  -0.05805  -0.05308

 Mulliken atomic charges:
              1
     1  O   -1.033265
     2  O   -1.264127
     3  Ca   1.451558
     4  P    1.074610
     5  Ca   1.422045
     6  O   -1.036862
     7  O   -0.487739
     8  O   -0.620707
     9  Ca   1.494486
 Sum of Mulliken charges=   1.00000

 Dipole moment (field-independent basis, Debye):
    X=     4.9121    Y=     5.7847    Z=     5.8669  Tot=     9.5922
 Quadrupole moment (field-independent basis, Debye-Ang):
   XX=   -52.0384   YY=   -57.9596   ZZ=   -75.5358
   XY=    -2.1720   XZ=    -5.9521   YZ=   -22.4183

 Normal termination of Gaussian 03 at Fri Jun 12 17:57:14 2015.
