 Gaussian 03, Revision E.01,
 Gaussian 03:  EM64T-G03RevE.01 11-Sep-2007

 ----------------------------------------------------
 # b3lyp/6-31+G(d,p) int=ultrafine pop=(ReadRadii,MK)
 ----------------------------------------------------

 -----------------------------------------
 mol_17.24.45.pdbcccc_plusQ.z58298.zip.xyz
 -----------------------------------------
 Symbolic Z-matrix:
 Charge =  1 Multiplicity = 1

                         Standard orientation:
 ---------------------------------------------------------------------
 Center     Atomic     Atomic              Coordinates (Angstroms)
 Number     Number      Type              X           Y           Z
 ---------------------------------------------------------------------
    1          8             0       -0.860389   -1.702230    0.785830
    2          8             0       -0.860189   -1.702590   -0.785500
    3         20             0       -2.876249   -1.252802   -0.000130
    4          8             0       -0.780042    1.636110    0.000160
    5         15             0       -2.222273    2.157578    0.000010
    6          8             0       -3.250502    0.994817   -0.000320
    7         20             0        0.710540   -0.219829    0.000160
    8          8             0        2.913809    0.040773    0.000180
    9         20             0        4.967339    0.147695   -0.000180
 ---------------------------------------------------------------------

 SCF Done:  E(RB+HF-LYP) =  -2750.16080515     A.U. after   10 cycles

 The electronic state is 1-A.
 Alpha  occ. eigenvalues -- -145.56261-145.47357-145.39525 -77.24883 -19.23071
 Alpha  occ. eigenvalues --  -19.22639 -19.19094 -19.19089 -19.14739 -15.63033
 Alpha  occ. eigenvalues --  -15.54241 -15.46439 -12.76248 -12.76248 -12.76118
 Alpha  occ. eigenvalues --  -12.67454 -12.67452 -12.67328 -12.59699 -12.59642
 Alpha  occ. eigenvalues --  -12.59498  -6.70445  -4.86884  -4.86662  -4.86234
 Alpha  occ. eigenvalues --   -1.99941  -1.91503  -1.83901  -1.27460  -1.27453
 Alpha  occ. eigenvalues --   -1.26567  -1.19498  -1.19088  -1.19077  -1.12082
 Alpha  occ. eigenvalues --   -1.11923  -1.11805  -1.08678  -1.03434  -1.01348
 Alpha  occ. eigenvalues --   -0.88573  -0.82875  -0.62291  -0.51747  -0.47810
 Alpha  occ. eigenvalues --   -0.47585  -0.42515  -0.41167  -0.40559  -0.39786
 Alpha  occ. eigenvalues --   -0.38745  -0.35590  -0.34925  -0.32699  -0.32602
 Alpha  occ. eigenvalues --   -0.30311  -0.27656
 Alpha virt. eigenvalues --   -0.24062  -0.15768  -0.14959  -0.14250  -0.14213
 Alpha virt. eigenvalues --   -0.12711  -0.09490  -0.08395  -0.07232  -0.06833
 Alpha virt. eigenvalues --   -0.06029  -0.05412  -0.05155  -0.05019  -0.04849

 Mulliken atomic charges:
              1
     1  O   -0.675331
     2  O   -0.675387
     3  Ca   1.384092
     4  O   -0.680052
     5  P    0.604765
     6  O   -0.713932
     7  Ca   1.446701
     8  O   -1.151952
     9  Ca   1.461096
 Sum of Mulliken charges=   1.00000

 Dipole moment (field-independent basis, Debye):
    X=    14.2169    Y=    -1.5180    Z=    -0.0027  Tot=    14.2977
 Quadrupole moment (field-independent basis, Debye-Ang):
   XX=    90.1061   YY=   -84.3384   ZZ=   -77.8359
   XY=    24.8559   XZ=    -0.0074   YZ=     0.0016

 Normal termination of Gaussian 03 at Fri Jun 12 17:56:30 2015.
