 Gaussian 03, Revision E.01,
 Gaussian 03:  EM64T-G03RevE.01 11-Sep-2007

 ----------------------------------------------------
 # b3lyp/6-31+G(d,p) int=ultrafine pop=(ReadRadii,MK)
 ----------------------------------------------------

 ----------------------------------------
 mol_17.22.57.pdbccc_plusQ.z58207.zip.xyz
 ----------------------------------------
 Symbolic Z-matrix:
 Charge =  1 Multiplicity = 1

                         Standard orientation:
 ---------------------------------------------------------------------
 Center     Atomic     Atomic              Coordinates (Angstroms)
 Number     Number      Type              X           Y           Z
 ---------------------------------------------------------------------
    1         20             0       -0.864958   -1.791050   -0.274412
    2          8             0       -1.836718   -0.447430    1.321798
    3          8             0       -2.911988   -0.551291    0.286988
    4          8             0       -2.294309   -0.155200   -1.017712
    5         20             0       -1.788249    1.666100    0.340198
    6         15             0        1.030161    0.989211   -0.757672
    7          8             0        2.420041    1.488652   -0.206012
    8          8             0        1.117062   -0.665559   -0.442442
    9         20             0        3.282952   -0.484628    0.525418
 ---------------------------------------------------------------------

 SCF Done:  E(RB+HF-LYP) =  -2750.02418988     A.U. after   12 cycles

 The electronic state is 1-A.
 Alpha  occ. eigenvalues -- -145.52781-145.52138-145.51487 -77.24180 -19.36779
 Alpha  occ. eigenvalues --  -19.27568 -19.27422 -19.25386 -19.22935 -15.59706
 Alpha  occ. eigenvalues --  -15.58947 -15.58356 -12.72932 -12.72870 -12.72806
 Alpha  occ. eigenvalues --  -12.72154 -12.72144 -12.72077 -12.71556 -12.71536
 Alpha  occ. eigenvalues --  -12.71485  -6.69968  -4.86373  -4.86011  -4.85957
 Alpha  occ. eigenvalues --   -1.96764  -1.96106  -1.95457  -1.26594  -1.24390
 Alpha  occ. eigenvalues --   -1.24254  -1.24046  -1.23596  -1.23536  -1.23037
 Alpha  occ. eigenvalues --   -1.22867  -1.22789  -1.18928  -1.08258  -1.03405
 Alpha  occ. eigenvalues --   -1.03307  -0.88048  -0.64193  -0.57346  -0.55533
 Alpha  occ. eigenvalues --   -0.55099  -0.51699  -0.50420  -0.48165  -0.43647
 Alpha  occ. eigenvalues --   -0.41896  -0.41480  -0.41000  -0.39386  -0.39084
 Alpha  occ. eigenvalues --   -0.35756  -0.24356
 Alpha virt. eigenvalues --   -0.21698  -0.19487  -0.18247  -0.14126  -0.13289
 Alpha virt. eigenvalues --   -0.13121  -0.12258  -0.11061  -0.10556  -0.09872
 Alpha virt. eigenvalues --   -0.08844  -0.07781  -0.07353  -0.07128  -0.06343

 Mulliken atomic charges:
              1
     1  Ca   1.463602
     2  O   -0.605536
     3  O   -0.077815
     4  O   -0.613407
     5  Ca   1.117554
     6  P    0.364344
     7  O   -0.689133
     8  O   -0.864282
     9  Ca   0.904673
 Sum of Mulliken charges=   1.00000

 Dipole moment (field-independent basis, Debye):
    X=     0.6532    Y=    -2.9101    Z=     1.0259  Tot=     3.1540
 Quadrupole moment (field-independent basis, Debye-Ang):
   XX=   -59.7647   YY=   -52.2197   ZZ=   -88.7077
   XY=   -17.7364   XZ=     3.2384   YZ=     8.5175

 Normal termination of Gaussian 03 at Fri Jun 12 17:51:48 2015.
