 Gaussian 03, Revision E.01,
 Gaussian 03:  EM64T-G03RevE.01 11-Sep-2007

 ----------------------------------------------------
 # b3lyp/6-31+G(d,p) int=ultrafine pop=(ReadRadii,MK)
 ----------------------------------------------------

 -----------------------------------------
 mol_16.5.2.pdbcc_plusQ.out.z51627.zip.xyz
 -----------------------------------------
 Symbolic Z-matrix:
 Charge =  1 Multiplicity = 1

                         Standard orientation:
 ---------------------------------------------------------------------
 Center     Atomic     Atomic              Coordinates (Angstroms)
 Number     Number      Type              X           Y           Z
 ---------------------------------------------------------------------
    1          8             0       -1.442960    1.272957    0.000349
    2          8             0        1.713401    0.000748   -0.786121
    3         20             0        0.762391   -1.857908    0.000009
    4         15             0       -2.319999   -0.000867   -0.000121
    5         20             0        0.760831    1.858382   -0.000091
    6          8             0       -1.441819   -1.273993   -0.000011
    7          8             0        1.713321    0.000728    0.786219
 ---------------------------------------------------------------------

 SCF Done:  E(RB+HF-LYP) =  -1997.33372468     A.U. after    6 cycles

 The electronic state is 1-A.
 Alpha  occ. eigenvalues -- -145.53247-145.53244 -77.30162 -19.27959 -19.27944
 Alpha  occ. eigenvalues --  -19.25593 -19.25582 -15.60094 -15.60092 -12.73309
 Alpha  occ. eigenvalues --  -12.73306 -12.73291 -12.73288 -12.73209 -12.73205
 Alpha  occ. eigenvalues --   -6.75643  -4.92083  -4.91867  -4.91423  -1.97236
 Alpha  occ. eigenvalues --   -1.97209  -1.25765  -1.24806  -1.24792  -1.24725
 Alpha  occ. eigenvalues --   -1.24725  -1.24302  -1.13923  -1.08554  -1.08252
 Alpha  occ. eigenvalues --   -0.89519  -0.67704  -0.57280  -0.52822  -0.52599
 Alpha  occ. eigenvalues --   -0.48994  -0.47945  -0.46120  -0.45761  -0.43899
 Alpha  occ. eigenvalues --   -0.40700  -0.37190  -0.34165
 Alpha virt. eigenvalues --   -0.20456  -0.19852  -0.19631  -0.14480  -0.11367
 Alpha virt. eigenvalues --   -0.11280  -0.10319  -0.09666  -0.09041  -0.07375
 Alpha virt. eigenvalues --   -0.07215  -0.06432  -0.05962  -0.05215  -0.04857

 Mulliken atomic charges:
              1
     1  O   -0.709896
     2  O   -0.668492
     3  Ca   1.544042
     4  P    0.668746
     5  Ca   1.543990
     6  O   -0.709768
     7  O   -0.668621
 Sum of Mulliken charges=   1.00000

 Dipole moment (field-independent basis, Debye):
    X=     3.1413    Y=    -0.0014    Z=    -0.0025  Tot=     3.1413
 Quadrupole moment (field-independent basis, Debye-Ang):
   XX=   -66.5044   YY=    -8.8829   ZZ=   -58.2532
   XY=    -0.0238   XZ=    -0.0013   YZ=    -0.0033

 Normal termination of Gaussian 03 at Fri Jun 12 17:49:31 2015.
