 Gaussian 03, Revision E.01,
 Gaussian 03:  EM64T-G03RevE.01 11-Sep-2007

 ----------------------------------------------------
 # b3lyp/6-31+G(d,p) int=ultrafine pop=(ReadRadii,MK)
 ----------------------------------------------------

 -----------------------------------------
 mol_16.4.39.pdbc_plusQ.out.z51589.zip.xyz
 -----------------------------------------
 Symbolic Z-matrix:
 Charge =  1 Multiplicity = 1

                         Standard orientation:
 ---------------------------------------------------------------------
 Center     Atomic     Atomic              Coordinates (Angstroms)
 Number     Number      Type              X           Y           Z
 ---------------------------------------------------------------------
    1          8             0        0.949627    1.278186   -0.001239
    2          8             0        3.246802   -0.001101   -0.000739
    3          8             0        0.948518   -1.278214    0.002651
    4         15             0        1.776412   -0.000356    0.000061
    5         20             0       -1.255941    1.894294    0.000331
    6          8             0       -2.192758    0.000577    0.000161
    7         20             0       -1.257244   -1.893806   -0.000709
 ---------------------------------------------------------------------

 SCF Done:  E(RB+HF-LYP) =  -1997.36495531     A.U. after    9 cycles

 The electronic state is 1-A.
 Alpha  occ. eigenvalues -- -145.53594-145.53592 -77.35860 -19.29931 -19.29929
 Alpha  occ. eigenvalues --  -19.27563 -19.15850 -15.60449 -15.60448 -12.73700
 Alpha  occ. eigenvalues --  -12.73698 -12.73625 -12.73623 -12.73534 -12.73532
 Alpha  occ. eigenvalues --   -6.81068  -4.97686  -4.97215  -4.97119  -1.97567
 Alpha  occ. eigenvalues --   -1.97549  -1.25347  -1.25328  -1.25296  -1.25083
 Alpha  occ. eigenvalues --   -1.24705  -1.24173  -1.18400  -1.11387  -1.10401
 Alpha  occ. eigenvalues --   -0.90348  -0.67784  -0.60015  -0.56616  -0.55840
 Alpha  occ. eigenvalues --   -0.50172  -0.48058  -0.47798  -0.45415  -0.42510
 Alpha  occ. eigenvalues --   -0.36651  -0.34565  -0.34387
 Alpha virt. eigenvalues --   -0.22298  -0.20459  -0.16813  -0.14887  -0.13474
 Alpha virt. eigenvalues --   -0.12518  -0.11816  -0.10787  -0.09941  -0.08257
 Alpha virt. eigenvalues --   -0.07256  -0.06248  -0.05558  -0.05269  -0.04859

 Mulliken atomic charges:
              1
     1  O   -0.860101
     2  O   -0.611805
     3  O   -0.860203
     4  P    1.559152
     5  Ca   1.485238
     6  O   -1.197553
     7  Ca   1.485273
 Sum of Mulliken charges=   1.00000

 Dipole moment (field-independent basis, Debye):
    X=    -8.6780    Y=     0.0009    Z=    -0.0049  Tot=     8.6780
 Quadrupole moment (field-independent basis, Debye-Ang):
   XX=   -74.7286   YY=    -7.7791   ZZ=   -53.5428
   XY=     0.0238   XZ=     0.0084   YZ=     0.0344

 Normal termination of Gaussian 03 at Fri Jun 12 17:48:24 2015.
