 Gaussian 03, Revision E.01,
 Gaussian 03:  EM64T-G03RevE.01 11-Sep-2007

 ----------------------------------------------------
 # b3lyp/6-31+G(d,p) int=ultrafine pop=(ReadRadii,MK)
 ----------------------------------------------------

 ---------------------------------------
 mol_17.28.58.pdbcc_plusQ.z58583.zip.xyz
 ---------------------------------------
 Symbolic Z-matrix:
 Charge =  1 Multiplicity = 1

                         Standard orientation:
 ---------------------------------------------------------------------
 Center     Atomic     Atomic              Coordinates (Angstroms)
 Number     Number      Type              X           Y           Z
 ---------------------------------------------------------------------
    1          8             0        0.673861   -0.001258    1.471749
    2          8             0       -2.072169   -0.002172    1.396889
    3         15             0       -0.680339   -0.001060    0.735089
    4         20             0        1.638373   -1.694106   -0.114711
    5          8             0        2.642391    0.001126   -0.934511
    6          8             0       -0.707622    1.254350   -0.288421
    7         20             0       -2.697269    0.000747   -0.865121
    8         20             0        1.637218    1.694944   -0.113311
    9          8             0       -0.706627   -1.254020   -0.291141
 ---------------------------------------------------------------------

 SCF Done:  E(RB+HF-LYP) =  -2750.29808239     A.U. after   10 cycles

 The electronic state is 1-A.
 Alpha  occ. eigenvalues -- -145.57954-145.47231-145.47227 -77.31601 -19.23824
 Alpha  occ. eigenvalues --  -19.22926 -19.22924 -19.21457 -19.10167 -15.64606
 Alpha  occ. eigenvalues --  -15.54061 -15.54058 -12.77807 -12.77804 -12.77793
 Alpha  occ. eigenvalues --  -12.67282 -12.67279 -12.67271 -12.67268 -12.67144
 Alpha  occ. eigenvalues --  -12.67142  -6.76214  -4.92587  -4.92575  -4.92462
 Alpha  occ. eigenvalues --   -2.01384  -1.91284  -1.91230  -1.29239  -1.28565
 Alpha  occ. eigenvalues --   -1.28537  -1.19732  -1.18939  -1.18883  -1.18830
 Alpha  occ. eigenvalues --   -1.18546  -1.17839  -1.13226  -1.05730  -1.03317
 Alpha  occ. eigenvalues --   -1.03275  -0.84392  -0.62850  -0.54545  -0.53753
 Alpha  occ. eigenvalues --   -0.52822  -0.46976  -0.46090  -0.44541  -0.42824
 Alpha  occ. eigenvalues --   -0.42134  -0.39664  -0.39017  -0.36423  -0.30214
 Alpha  occ. eigenvalues --   -0.28473  -0.28398
 Alpha virt. eigenvalues --   -0.23009  -0.17080  -0.15715  -0.13320  -0.13267
 Alpha virt. eigenvalues --   -0.10168  -0.09206  -0.08565  -0.07815  -0.07318
 Alpha virt. eigenvalues --   -0.07160  -0.05943  -0.05553  -0.05159  -0.04888

 Mulliken atomic charges:
              1
     1  O   -0.924647
     2  O   -0.842616
     3  P    1.804310
     4  Ca   1.386905
     5  O   -1.161715
     6  O   -1.055128
     7  Ca   1.460915
     8  Ca   1.386946
     9  O   -1.054970
 Sum of Mulliken charges=   1.00000

 Dipole moment (field-independent basis, Debye):
    X=    -7.1087    Y=     0.0084    Z=    -5.8442  Tot=     9.2026
 Quadrupole moment (field-independent basis, Debye-Ang):
   XX=   -40.1312   YY=   -41.8551   ZZ=   -83.9389
   XY=    -0.0448   XZ=    35.4655   YZ=     0.0186

 Normal termination of Gaussian 03 at Fri Jun 12 18:11:30 2015.
