 Gaussian 03, Revision E.01,
 Gaussian 03:  EM64T-G03RevE.01 11-Sep-2007

 ----------------------------------------------------
 # b3lyp/6-31+G(d,p) int=ultrafine pop=(ReadRadii,MK)
 ----------------------------------------------------

 ----------------------------------------
 mol_16.4.6.pdbc_plusQ.out.z51611.zip.xyz
 ----------------------------------------
 Symbolic Z-matrix:
 Charge =  1 Multiplicity = 1

                         Standard orientation:
 ---------------------------------------------------------------------
 Center     Atomic     Atomic              Coordinates (Angstroms)
 Number     Number      Type              X           Y           Z
 ---------------------------------------------------------------------
    1          8             0        1.381746    1.464357   -0.000720
    2         15             0       -0.000045    0.800011    0.000010
    3          8             0       -1.381784    1.464394   -0.000330
    4          8             0        0.000492   -0.329649    1.197520
    5         20             0       -2.068889   -0.753584    0.000100
    6         20             0        2.068881   -0.753545    0.000000
    7          8             0       -0.000348   -0.331299   -1.196740
 ---------------------------------------------------------------------

 SCF Done:  E(RB+HF-LYP) =  -1997.39007812     A.U. after    8 cycles

 The electronic state is 1-A.
 Alpha  occ. eigenvalues -- -145.57693-145.57689 -77.31335 -19.22626 -19.22612
 Alpha  occ. eigenvalues --  -19.22308 -19.22281 -15.64395 -15.64391 -12.77594
 Alpha  occ. eigenvalues --  -12.77590 -12.77581 -12.77580 -12.77578 -12.77576
 Alpha  occ. eigenvalues --   -6.76057  -4.92405  -4.92398  -4.92321  -2.01224
 Alpha  occ. eigenvalues --   -2.01216  -1.29332  -1.28817  -1.28438  -1.28438
 Alpha  occ. eigenvalues --   -1.28382  -1.28334  -1.12991  -1.05507  -1.03665
 Alpha  occ. eigenvalues --   -1.01674  -0.62402  -0.53179  -0.53141  -0.52461
 Alpha  occ. eigenvalues --   -0.45697  -0.45587  -0.45186  -0.42431  -0.40461
 Alpha  occ. eigenvalues --   -0.39285  -0.38001  -0.35886
 Alpha virt. eigenvalues --   -0.23655  -0.22442  -0.14872  -0.13487  -0.12800
 Alpha virt. eigenvalues --   -0.12505  -0.10779  -0.08513  -0.07911  -0.06634
 Alpha virt. eigenvalues --   -0.05355  -0.05334  -0.04645  -0.04455  -0.04313

 Mulliken atomic charges:
              1
     1  O   -0.825832
     2  P    1.721815
     3  O   -0.825825
     4  O   -1.017847
     5  Ca   1.483093
     6  Ca   1.483072
     7  O   -1.018476
 Sum of Mulliken charges=   1.00000

 Dipole moment (field-independent basis, Debye):
    X=    -0.0003    Y=   -13.9800    Z=     0.0045  Tot=    13.9800
 Quadrupole moment (field-independent basis, Debye-Ang):
   XX=     3.4912   YY=   -55.5429   ZZ=   -66.8018
   XY=     0.0015   XZ=    -0.0037   YZ=    -0.0038

 Normal termination of Gaussian 03 at Fri Jun 12 17:49:10 2015.
