 Gaussian 03, Revision E.01,
 Gaussian 03:  EM64T-G03RevE.01 11-Sep-2007

 ----------------------------------------------------
 # b3lyp/6-31+G(d,p) int=ultrafine pop=(ReadRadii,MK)
 ----------------------------------------------------

 --------------------------------------
 mol_17.22.59.pdbc_plusQ.z58209.zip.xyz
 --------------------------------------
 Symbolic Z-matrix:
 Charge =  1 Multiplicity = 1

                         Standard orientation:
 ---------------------------------------------------------------------
 Center     Atomic     Atomic              Coordinates (Angstroms)
 Number     Number      Type              X           Y           Z
 ---------------------------------------------------------------------
    1          8             0        3.547235    0.763068   -0.675799
    2          8             0        3.534260   -0.853352   -0.667479
    3         15             0        2.675697   -0.032664    0.411991
    4          8             0        2.853767   -0.026183    1.871011
    5          8             0        1.108177   -0.021958    0.052171
    6          8             0        0.772497   -0.025229   -1.428439
    7         20             0       -1.211003    0.010266   -0.359629
    8         20             0       -2.694642    3.570682    0.192521
    9         20             0       -2.827503   -3.490988    0.197531
 ---------------------------------------------------------------------

 SCF Done:  E(RB+HF-LYP) =  -2749.82644420     A.U. after   10 cycles

 The electronic state is 1-A.
 Alpha  occ. eigenvalues -- -145.55179-145.55172-145.52500 -77.35456 -19.34079
 Alpha  occ. eigenvalues --  -19.33572 -19.33548 -19.25754 -19.24586 -15.62229
 Alpha  occ. eigenvalues --  -15.62222 -15.59416 -12.75368 -12.75367 -12.75361
 Alpha  occ. eigenvalues --  -12.75361 -12.75352 -12.75345 -12.72638 -12.72601
 Alpha  occ. eigenvalues --  -12.72506  -6.80198  -4.96598  -4.96571  -4.96355
 Alpha  occ. eigenvalues --   -1.99268  -1.99261  -1.96559  -1.26527  -1.26524
 Alpha  occ. eigenvalues --   -1.26520  -1.26517  -1.26360  -1.26353  -1.25742
 Alpha  occ. eigenvalues --   -1.24401  -1.24004  -1.23956  -1.17979  -1.09419
 Alpha  occ. eigenvalues --   -1.00569  -0.95309  -0.68968  -0.61343  -0.56959
 Alpha  occ. eigenvalues --   -0.55582  -0.55448  -0.51611  -0.49657  -0.49228
 Alpha  occ. eigenvalues --   -0.42972  -0.42203  -0.39555  -0.38214  -0.35257
 Alpha  occ. eigenvalues --   -0.32021  -0.29904
 Alpha virt. eigenvalues --   -0.21642  -0.19919  -0.17646  -0.17522  -0.16977
 Alpha virt. eigenvalues --   -0.15818  -0.15372  -0.13550  -0.11091  -0.10994
 Alpha virt. eigenvalues --   -0.10331  -0.09294  -0.08531  -0.07491  -0.07078

 Mulliken atomic charges:
              1
     1  O   -0.393971
     2  O   -0.392776
     3  P    1.787666
     4  O   -0.632733
     5  O   -0.610504
     6  O   -0.422859
     7  Ca   0.794166
     8  Ca   0.435091
     9  Ca   0.435920
 Sum of Mulliken charges=   1.00000

 Dipole moment (field-independent basis, Debye):
    X=   -19.6110    Y=     0.2671    Z=     1.1161  Tot=    19.6445
 Quadrupole moment (field-independent basis, Debye-Ang):
   XX=   -60.1911   YY=    -4.0317   ZZ=  -100.1897
   XY=     1.1598   XZ=    -2.7184   YZ=    -0.0952

 Normal termination of Gaussian 03 at Fri Jun 12 17:51:17 2015.
