 Gaussian 03, Revision E.01,
 Gaussian 03:  EM64T-G03RevE.01 11-Sep-2007

 ----------------------------------------------------
 # b3lyp/6-31+G(d,p) int=ultrafine pop=(ReadRadii,MK)
 ----------------------------------------------------

 ------------------------------------
 mol_17.28.0.pdb_plusQ.z58531.zip.xyz
 ------------------------------------
 Symbolic Z-matrix:
 Charge =  1 Multiplicity = 1

                         Standard orientation:
 ---------------------------------------------------------------------
 Center     Atomic     Atomic              Coordinates (Angstroms)
 Number     Number      Type              X           Y           Z
 ---------------------------------------------------------------------
    1          8             0       -0.674121    0.000110    1.471231
    2          8             0        0.706619   -1.254821   -0.290039
    3         20             0       -1.638822   -1.694130   -0.114509
    4         20             0       -1.637050    1.694970   -0.113459
    5          8             0       -2.642661    0.001201   -0.934459
    6          8             0        0.708160    1.253619   -0.289649
    7         15             0        0.680449   -0.000811    0.735111
    8         20             0        2.697519    0.000358   -0.865159
    9          8             0        2.072039   -0.001582    1.397401
 ---------------------------------------------------------------------

 SCF Done:  E(RB+HF-LYP) =  -2750.29808237     A.U. after   10 cycles

 The electronic state is 1-A.
 Alpha  occ. eigenvalues -- -145.57957-145.47231-145.47228 -77.31601 -19.23824
 Alpha  occ. eigenvalues --  -19.22927 -19.22921 -19.21458 -19.10166 -15.64609
 Alpha  occ. eigenvalues --  -15.54061 -15.54059 -12.77810 -12.77807 -12.77797
 Alpha  occ. eigenvalues --  -12.67282 -12.67281 -12.67271 -12.67269 -12.67145
 Alpha  occ. eigenvalues --  -12.67143  -6.76214  -4.92587  -4.92575  -4.92462
 Alpha  occ. eigenvalues --   -2.01386  -1.91284  -1.91231  -1.29240  -1.28567
 Alpha  occ. eigenvalues --   -1.28540  -1.19732  -1.18940  -1.18883  -1.18830
 Alpha  occ. eigenvalues --   -1.18546  -1.17840  -1.13223  -1.05728  -1.03314
 Alpha  occ. eigenvalues --   -1.03274  -0.84391  -0.62849  -0.54544  -0.53751
 Alpha  occ. eigenvalues --   -0.52819  -0.46973  -0.46088  -0.44538  -0.42823
 Alpha  occ. eigenvalues --   -0.42132  -0.39663  -0.39016  -0.36421  -0.30212
 Alpha  occ. eigenvalues --   -0.28471  -0.28396
 Alpha virt. eigenvalues --   -0.23010  -0.17081  -0.15715  -0.13320  -0.13268
 Alpha virt. eigenvalues --   -0.10169  -0.09206  -0.08565  -0.07815  -0.07318
 Alpha virt. eigenvalues --   -0.07161  -0.05943  -0.05553  -0.05159  -0.04888

 Mulliken atomic charges:
              1
     1  O   -0.924851
     2  O   -1.054865
     3  Ca   1.387001
     4  Ca   1.386998
     5  O   -1.161722
     6  O   -1.055230
     7  P    1.804069
     8  Ca   1.460972
     9  O   -0.842371
 Sum of Mulliken charges=   1.00000

 Dipole moment (field-independent basis, Debye):
    X=     7.1107    Y=     0.0052    Z=    -5.8437  Tot=     9.2038
 Quadrupole moment (field-independent basis, Debye-Ang):
   XX=   -40.1232   YY=   -41.8564   ZZ=   -83.9390
   XY=     0.0464   XZ=   -35.4697   YZ=     0.0181

 Normal termination of Gaussian 03 at Fri Jun 12 18:08:41 2015.
