 Gaussian 03, Revision E.01,
 Gaussian 03:  EM64T-G03RevE.01 11-Sep-2007

 ----------------------------------------------------
 # b3lyp/6-31+G(d,p) int=ultrafine pop=(ReadRadii,MK)
 ----------------------------------------------------

 ----------------------------------------
 mol_17.26.43.pdbccc_plusQ.z58454.zip.xyz
 ----------------------------------------
 Symbolic Z-matrix:
 Charge =  1 Multiplicity = 1

                         Standard orientation:
 ---------------------------------------------------------------------
 Center     Atomic     Atomic              Coordinates (Angstroms)
 Number     Number      Type              X           Y           Z
 ---------------------------------------------------------------------
    1          8             0        1.722112    1.276907    0.000010
    2          8             0        4.012710   -0.001156    0.000030
    3          8             0        1.721288   -1.277743    0.000020
    4         15             0        2.540450   -0.000674    0.000020
    5         20             0       -0.088256    2.671160   -0.000040
    6          8             0       -2.039567    1.895952    0.000000
    7         20             0       -3.077190    0.000714    0.000040
    8          8             0       -2.041262   -1.895428    0.000000
    9         20             0       -0.090004   -2.670780   -0.000040
 ---------------------------------------------------------------------

 SCF Done:  E(RB+HF-LYP) =  -2750.22997812     A.U. after    9 cycles

 The electronic state is 1-A.
 Alpha  occ. eigenvalues -- -145.50368-145.50366-145.43697 -77.35678 -19.29667
 Alpha  occ. eigenvalues --  -19.29662 -19.27215 -19.12848 -19.12730 -15.57238
 Alpha  occ. eigenvalues --  -15.57235 -15.50720 -12.70490 -12.70488 -12.70442
 Alpha  occ. eigenvalues --  -12.70440 -12.70285 -12.70283 -12.63978 -12.63926
 Alpha  occ. eigenvalues --  -12.63717  -6.80862  -4.97484  -4.97013  -4.96913
 Alpha  occ. eigenvalues --   -1.94440  -1.94437  -1.88188  -1.22346  -1.22268
 Alpha  occ. eigenvalues --   -1.22265  -1.22161  -1.21409  -1.21336  -1.18018
 Alpha  occ. eigenvalues --   -1.16225  -1.15923  -1.15023  -1.11184  -1.10078
 Alpha  occ. eigenvalues --   -0.87145  -0.86553  -0.67800  -0.59921  -0.56385
 Alpha  occ. eigenvalues --   -0.55707  -0.49480  -0.47921  -0.47911  -0.45162
 Alpha  occ. eigenvalues --   -0.42128  -0.34001  -0.32345  -0.31542  -0.31175
 Alpha  occ. eigenvalues --   -0.31037  -0.30602
 Alpha virt. eigenvalues --   -0.19989  -0.18454  -0.15809  -0.14759  -0.14546
 Alpha virt. eigenvalues --   -0.11766  -0.10810  -0.09986  -0.08490  -0.08320
 Alpha virt. eigenvalues --   -0.07868  -0.07730  -0.06547  -0.06106  -0.05299

 Mulliken atomic charges:
              1
     1  O   -0.883337
     2  O   -0.605196
     3  O   -0.883357
     4  P    1.591860
     5  Ca   1.447884
     6  O   -1.249350
     7  Ca   1.382299
     8  O   -1.247542
     9  Ca   1.446739
 Sum of Mulliken charges=   1.00000

 Dipole moment (field-independent basis, Debye):
    X=    -3.3595    Y=     0.0058    Z=    -0.0003  Tot=     3.3595
 Quadrupole moment (field-independent basis, Debye-Ang):
   XX=   -79.0974   YY=   -24.1818   ZZ=   -72.7289
   XY=     0.0296   XZ=    -0.0011   YZ=     0.0000

 Normal termination of Gaussian 03 at Fri Jun 12 18:00:59 2015.
