 Gaussian 03, Revision E.01,
 Gaussian 03:  EM64T-G03RevE.01 11-Sep-2007

 ----------------------------------------------------
 # b3lyp/6-31+G(d,p) int=ultrafine pop=(ReadRadii,MK)
 ----------------------------------------------------

 ----------------------------------------
 mol_17.23.50.pdbccc_plusQ.z58251.zip.xyz
 ----------------------------------------
 Symbolic Z-matrix:
 Charge =  1 Multiplicity = 1

                         Standard orientation:
 ---------------------------------------------------------------------
 Center     Atomic     Atomic              Coordinates (Angstroms)
 Number     Number      Type              X           Y           Z
 ---------------------------------------------------------------------
    1          8             0       -1.867382   -1.570238   -0.001620
    2         15             0       -3.306622   -1.023056   -0.018390
    3         20             0        0.436018   -1.347490    0.026270
    4          8             0       -3.260450    0.528664   -0.012050
    5         20             0       -1.483658    1.930262    0.006270
    6         20             0        2.766041    1.004897   -0.008080
    7          8             0        0.472321    1.016850    0.018310
    8          8             0        2.554138   -1.215153   -0.007560
    9          8             0        4.005289   -0.811064   -0.023750
 ---------------------------------------------------------------------

 SCF Done:  E(RB+HF-LYP) =  -2750.16980245     A.U. after    8 cycles

 The electronic state is 1-A.
 Alpha  occ. eigenvalues -- -145.54724-145.47740-145.47165 -77.30603 -19.28683
 Alpha  occ. eigenvalues --  -19.28354 -19.19430 -19.18967 -19.16981 -15.61612
 Alpha  occ. eigenvalues --  -15.54549 -15.54095 -12.74868 -12.74813 -12.74659
 Alpha  occ. eigenvalues --  -12.67829 -12.67730 -12.67628 -12.67364 -12.67279
 Alpha  occ. eigenvalues --  -12.67134  -6.76163  -4.92603  -4.92377  -4.91936
 Alpha  occ. eigenvalues --   -1.98798  -1.91839  -1.91451  -1.26644  -1.26486
 Alpha  occ. eigenvalues --   -1.25669  -1.20205  -1.19842  -1.19414  -1.19307
 Alpha  occ. eigenvalues --   -1.19003  -1.18340  -1.14590  -1.09062  -1.02258
 Alpha  occ. eigenvalues --   -0.93942  -0.80783  -0.68242  -0.57730  -0.53571
 Alpha  occ. eigenvalues --   -0.53375  -0.46355  -0.44397  -0.43739  -0.41826
 Alpha  occ. eigenvalues --   -0.40702  -0.39334  -0.39146  -0.38606  -0.37793
 Alpha  occ. eigenvalues --   -0.26930  -0.25202
 Alpha virt. eigenvalues --   -0.22468  -0.20539  -0.17849  -0.15393  -0.14390
 Alpha virt. eigenvalues --   -0.12331  -0.11543  -0.10287  -0.09486  -0.08526
 Alpha virt. eigenvalues --   -0.08073  -0.07361  -0.06894  -0.06386  -0.05911

 Mulliken atomic charges:
              1
     1  O   -0.682461
     2  P    0.679726
     3  Ca   1.399984
     4  O   -0.719614
     5  Ca   1.542379
     6  Ca   1.394317
     7  O   -1.378640
     8  O   -0.611089
     9  O   -0.624603
 Sum of Mulliken charges=   1.00000

 Dipole moment (field-independent basis, Debye):
    X=    -6.1420    Y=    12.5501    Z=     0.1515  Tot=    13.9733
 Quadrupole moment (field-independent basis, Debye-Ang):
   XX=   -89.9349   YY=   -43.3906   ZZ=   -73.1777
   XY=    16.8776   XZ=     0.1229   YZ=    -0.4210

 Normal termination of Gaussian 03 at Fri Jun 12 17:53:48 2015.
