 Gaussian 03, Revision E.01,
 Gaussian 03:  EM64T-G03RevE.01 11-Sep-2007

 ----------------------------------------------------
 # b3lyp/6-31+G(d,p) int=ultrafine pop=(ReadRadii,MK)
 ----------------------------------------------------

 --------------------------------------
 mol_17.22.55.pdbc_plusQ.z58205.zip.xyz
 --------------------------------------
 Symbolic Z-matrix:
 Charge =  1 Multiplicity = 1

                         Standard orientation:
 ---------------------------------------------------------------------
 Center     Atomic     Atomic              Coordinates (Angstroms)
 Number     Number      Type              X           Y           Z
 ---------------------------------------------------------------------
    1         20             0        0.727718    1.518690    0.008791
    2          8             0        2.876648    1.414671   -0.003539
    3         20             0        3.075149   -0.695649   -0.009429
    4         15             0       -3.170002    0.867318   -0.009769
    5          8             0       -3.410801   -0.653112   -0.011069
    6          8             0       -1.612892    1.040649    0.005601
    7          8             0        0.824119   -0.878860    0.780041
    8          8             0        0.816739   -0.876740   -0.775349
    9         20             0       -1.222891   -1.492171    0.009691
 ---------------------------------------------------------------------

 SCF Done:  E(RB+HF-LYP) =  -2750.19922442     A.U. after    8 cycles

 The electronic state is 1-A.
 Alpha  occ. eigenvalues -- -145.53298-145.48109-145.46493 -77.31642 -19.29953
 Alpha  occ. eigenvalues --  -19.29130 -19.27663 -19.27651 -19.10313 -15.60144
 Alpha  occ. eigenvalues --  -15.54946 -15.53352 -12.73380 -12.73375 -12.73210
 Alpha  occ. eigenvalues --  -12.68164 -12.68128 -12.68049 -12.66606 -12.66570
 Alpha  occ. eigenvalues --  -12.66401  -6.77266  -4.93698  -4.93466  -4.93048
 Alpha  occ. eigenvalues --   -1.97330  -1.92143  -1.90662  -1.25313  -1.25144
 Alpha  occ. eigenvalues --   -1.25003  -1.20364  -1.19797  -1.19245  -1.18522
 Alpha  occ. eigenvalues --   -1.18449  -1.17863  -1.15546  -1.10922  -1.09759
 Alpha  occ. eigenvalues --   -0.91294  -0.84520  -0.68924  -0.57891  -0.55267
 Alpha  occ. eigenvalues --   -0.54477  -0.51232  -0.50456  -0.49474  -0.46895
 Alpha  occ. eigenvalues --   -0.45450  -0.42691  -0.38849  -0.36724  -0.30146
 Alpha  occ. eigenvalues --   -0.28562  -0.28508
 Alpha virt. eigenvalues --   -0.21592  -0.19570  -0.17917  -0.15030  -0.15005
 Alpha virt. eigenvalues --   -0.11259  -0.10531  -0.09854  -0.09292  -0.08790
 Alpha virt. eigenvalues --   -0.08671  -0.08135  -0.07317  -0.06846  -0.06406

 Mulliken atomic charges:
              1
     1  Ca   1.356403
     2  O   -1.123750
     3  Ca   1.362827
     4  P    0.679942
     5  O   -0.647549
     6  O   -0.742337
     7  O   -0.694834
     8  O   -0.693980
     9  Ca   1.503278
 Sum of Mulliken charges=   1.00000

 Dipole moment (field-independent basis, Debye):
    X=    -0.3544    Y=    -7.6523    Z=     0.0609  Tot=     7.6607
 Quadrupole moment (field-independent basis, Debye-Ang):
   XX=   -63.5010   YY=   -57.0020   ZZ=   -77.2545
   XY=   -23.1754   XZ=    -0.2480   YZ=     0.0318

 Normal termination of Gaussian 03 at Fri Jun 12 17:51:05 2015.
