 Gaussian 03, Revision E.01,
 Gaussian 03:  EM64T-G03RevE.01 11-Sep-2007

 ----------------------------------------------------
 # b3lyp/6-31+G(d,p) int=ultrafine pop=(ReadRadii,MK)
 ----------------------------------------------------

 ----------------------------------------
 mol_17.28.23.pdbccc_plusQ.z58546.zip.xyz
 ----------------------------------------
 Symbolic Z-matrix:
 Charge =  1 Multiplicity = 1

                         Standard orientation:
 ---------------------------------------------------------------------
 Center     Atomic     Atomic              Coordinates (Angstroms)
 Number     Number      Type              X           Y           Z
 ---------------------------------------------------------------------
    1          8             0       -1.953532   -1.098186    0.828910
    2          8             0        0.073017   -1.564289   -0.734290
    3         20             0        2.318648   -1.232253   -0.176890
    4         15             0       -0.574691   -0.600888    0.280220
    5         20             0       -3.183590    0.272486   -0.369140
    6          8             0        0.521930   -0.169290    1.303170
    7          8             0        2.812081    0.819026   -0.553760
    8         20             0        1.117253    1.882179    0.176070
    9          8             0       -1.006729    0.833373   -0.444540
 ---------------------------------------------------------------------

 SCF Done:  E(RB+HF-LYP) =  -2750.26973925     A.U. after    8 cycles

 The electronic state is 1-A.
 Alpha  occ. eigenvalues -- -145.53963-145.50270-145.49068 -77.31074 -19.24110
 Alpha  occ. eigenvalues --  -19.23713 -19.21961 -19.20878 -19.18395 -15.60844
 Alpha  occ. eigenvalues --  -15.57089 -15.55924 -12.74072 -12.74000 -12.73966
 Alpha  occ. eigenvalues --  -12.70318 -12.70302 -12.70178 -12.69151 -12.69123
 Alpha  occ. eigenvalues --  -12.69013  -6.75447  -4.91888  -4.91769  -4.91726
 Alpha  occ. eigenvalues --   -1.97991  -1.94205  -1.93164  -1.25758  -1.25574
 Alpha  occ. eigenvalues --   -1.25264  -1.22255  -1.21803  -1.21495  -1.20932
 Alpha  occ. eigenvalues --   -1.20782  -1.20276  -1.12661  -1.04541  -1.03678
 Alpha  occ. eigenvalues --   -1.02505  -0.91449  -0.62585  -0.54008  -0.53458
 Alpha  occ. eigenvalues --   -0.52625  -0.46930  -0.44726  -0.44024  -0.42398
 Alpha  occ. eigenvalues --   -0.41925  -0.39385  -0.38011  -0.37109  -0.36422
 Alpha  occ. eigenvalues --   -0.34730  -0.34467
 Alpha virt. eigenvalues --   -0.21807  -0.18311  -0.17011  -0.12992  -0.12164
 Alpha virt. eigenvalues --   -0.10120  -0.10010  -0.09147  -0.08461  -0.07782
 Alpha virt. eigenvalues --   -0.07110  -0.06535  -0.05556  -0.05314  -0.04898

 Mulliken atomic charges:
              1
     1  O   -0.881614
     2  O   -0.890274
     3  Ca   1.436142
     4  P    1.800660
     5  Ca   1.586086
     6  O   -1.039855
     7  O   -1.342956
     8  Ca   1.455145
     9  O   -1.123334
 Sum of Mulliken charges=   1.00000

 Dipole moment (field-independent basis, Debye):
    X=   -14.4392    Y=     4.6880    Z=    -0.7271  Tot=    15.1986
 Quadrupole moment (field-independent basis, Debye-Ang):
   XX=   -12.2821   YY=   -49.2320   ZZ=   -83.3386
   XY=   -32.0364   XZ=    20.3854   YZ=     7.3399

 Normal termination of Gaussian 03 at Fri Jun 12 18:08:45 2015.
