 Gaussian 03, Revision E.01,
 Gaussian 03:  EM64T-G03RevE.01 11-Sep-2007

 ----------------------------------------------------
 # b3lyp/6-31+G(d,p) int=ultrafine pop=(ReadRadii,MK)
 ----------------------------------------------------

 --------------------------------------
 mol_17.27.7.pdbcc_plusQ.z58528.zip.xyz
 --------------------------------------
 Symbolic Z-matrix:
 Charge =  1 Multiplicity = 1

                         Standard orientation:
 ---------------------------------------------------------------------
 Center     Atomic     Atomic              Coordinates (Angstroms)
 Number     Number      Type              X           Y           Z
 ---------------------------------------------------------------------
    1          8             0       -3.098153   -0.217569   -0.007432
    2          8             0       -1.770583    0.459409    0.009798
    3         15             0       -1.916029    2.069305   -0.005622
    4          8             0       -0.472443    2.567106    0.002408
    5         20             0        1.824518    2.193372    0.002548
    6          8             0        2.724142    0.300868   -0.001542
    7         20             0        2.276123   -1.819905   -0.003022
    8          8             0        0.299587   -2.672731   -0.000102
    9         20             0       -1.736639   -2.100280    0.003438
 ---------------------------------------------------------------------

 SCF Done:  E(RB+HF-LYP) =  -2750.09246505     A.U. after    8 cycles

 The electronic state is 1-A.
 Alpha  occ. eigenvalues -- -145.50662-145.47459-145.42684 -77.33489 -19.36977
 Alpha  occ. eigenvalues --  -19.31115 -19.27991 -19.12633 -19.11144 -15.57544
 Alpha  occ. eigenvalues --  -15.54398 -15.49722 -12.70795 -12.70754 -12.70587
 Alpha  occ. eigenvalues --  -12.67655 -12.67636 -12.67398 -12.62980 -12.62933
 Alpha  occ. eigenvalues --  -12.62710  -6.79088  -4.95428  -4.95346  -4.94872
 Alpha  occ. eigenvalues --   -1.94734  -1.91707  -1.87223  -1.23470  -1.22556
 Alpha  occ. eigenvalues --   -1.22410  -1.21603  -1.19628  -1.19293  -1.18170
 Alpha  occ. eigenvalues --   -1.15280  -1.14996  -1.14350  -1.14027  -0.97082
 Alpha  occ. eigenvalues --   -0.86718  -0.85166  -0.71693  -0.61538  -0.58686
 Alpha  occ. eigenvalues --   -0.57303  -0.50910  -0.50411  -0.45354  -0.39823
 Alpha  occ. eigenvalues --   -0.37350  -0.33370  -0.31121  -0.30965  -0.30917
 Alpha  occ. eigenvalues --   -0.29556  -0.29419
 Alpha virt. eigenvalues --   -0.23206  -0.19197  -0.16692  -0.14315  -0.13441
 Alpha virt. eigenvalues --   -0.11660  -0.10411  -0.09932  -0.09485  -0.08972
 Alpha virt. eigenvalues --   -0.07688  -0.07278  -0.06805  -0.05944  -0.05814

 Mulliken atomic charges:
              1
     1  O   -0.508448
     2  O   -0.327994
     3  P    0.806520
     4  O   -0.691786
     5  Ca   1.444903
     6  O   -1.242853
     7  Ca   1.361340
     8  O   -1.256364
     9  Ca   1.414682
 Sum of Mulliken charges=   1.00000

 Dipole moment (field-independent basis, Debye):
    X=     2.2993    Y=     2.6911    Z=     0.0236  Tot=     3.5397
 Quadrupole moment (field-independent basis, Debye-Ang):
   XX=   -56.0614   YY=   -35.4909   ZZ=   -74.3985
   XY=    17.0319   XZ=    -0.0693   YZ=     0.0019

 Normal termination of Gaussian 03 at Fri Jun 12 18:07:59 2015.
