 Gaussian 03, Revision E.01,
 Gaussian 03:  EM64T-G03RevE.01 11-Sep-2007

 ----------------------------------------------------
 # b3lyp/6-31+G(d,p) int=ultrafine pop=(ReadRadii,MK)
 ----------------------------------------------------

 ---------------------------------------
 mol_17.24.47.pdbcc_plusQ.z58300.zip.xyz
 ---------------------------------------
 Symbolic Z-matrix:
 Charge =  1 Multiplicity = 1

                         Standard orientation:
 ---------------------------------------------------------------------
 Center     Atomic     Atomic              Coordinates (Angstroms)
 Number     Number      Type              X           Y           Z
 ---------------------------------------------------------------------
    1          8             0       -2.067800    0.003907    1.104140
    2          8             0       -0.607880    0.002715    1.521600
    3         20             0       -1.052186    1.672359   -0.140300
    4         15             0        1.064830   -0.003289   -1.531010
    5          8             0       -0.590400   -0.001735   -1.656460
    6          8             0        1.238821    1.283320   -0.443070
    7         20             0       -1.056384   -1.670971   -0.135890
    8         20             0        1.626470    0.000416    1.389730
    9          8             0        1.235950   -1.286550   -0.439410
 ---------------------------------------------------------------------

 SCF Done:  E(RB+HF-LYP) =  -2750.24881774     A.U. after    7 cycles

 The electronic state is 1-A.
 Alpha  occ. eigenvalues -- -145.52383-145.50187-145.50169 -77.25153 -19.25913
 Alpha  occ. eigenvalues --  -19.25462 -19.21785 -19.21783 -19.21335 -15.59142
 Alpha  occ. eigenvalues --  -15.56985 -15.56969 -12.72330 -12.72326 -12.72300
 Alpha  occ. eigenvalues --  -12.70194 -12.70185 -12.70178 -12.70169 -12.70106
 Alpha  occ. eigenvalues --  -12.70090  -6.70241  -4.86595  -4.86587  -4.86026
 Alpha  occ. eigenvalues --   -1.96320  -1.94231  -1.94164  -1.24345  -1.23876
 Alpha  occ. eigenvalues --   -1.23779  -1.22784  -1.22078  -1.21718  -1.21642
 Alpha  occ. eigenvalues --   -1.21523  -1.21225  -1.10038  -1.07331  -1.00855
 Alpha  occ. eigenvalues --   -1.00734  -0.89076  -0.63093  -0.51347  -0.51080
 Alpha  occ. eigenvalues --   -0.50980  -0.49236  -0.48453  -0.46048  -0.43794
 Alpha  occ. eigenvalues --   -0.43559  -0.38833  -0.38643  -0.38611  -0.35300
 Alpha  occ. eigenvalues --   -0.33990  -0.31698
 Alpha virt. eigenvalues --   -0.20300  -0.18389  -0.17632  -0.12783  -0.12602
 Alpha virt. eigenvalues --   -0.10903  -0.09917  -0.09096  -0.08254  -0.07948
 Alpha virt. eigenvalues --   -0.07349  -0.06562  -0.06018  -0.05817  -0.04924

 Mulliken atomic charges:
              1
     1  O   -0.643670
     2  O   -0.725379
     3  Ca   1.462434
     4  P    1.083365
     5  O   -1.034866
     6  O   -1.043917
     7  Ca   1.462810
     8  Ca   1.483010
     9  O   -1.043786
 Sum of Mulliken charges=   1.00000

 Dipole moment (field-independent basis, Debye):
    X=    -0.9408    Y=     0.0018    Z=     6.2050  Tot=     6.2759
 Quadrupole moment (field-independent basis, Debye-Ang):
   XX=   -63.7083   YY=   -44.2213   ZZ=   -80.5432
   XY=     0.0702   XZ=    28.3203   YZ=    -0.0733

 Normal termination of Gaussian 03 at Fri Jun 12 17:56:21 2015.
