 Gaussian 03, Revision E.01,
 Gaussian 03:  EM64T-G03RevE.01 11-Sep-2007

 ----------------------------------------------------
 # b3lyp/6-31+G(d,p) int=ultrafine pop=(ReadRadii,MK)
 ----------------------------------------------------

 -----------------------------------------
 mol_16.4.17.pdbc_plusQ.out.z51568.zip.xyz
 -----------------------------------------
 Symbolic Z-matrix:
 Charge =  1 Multiplicity = 1

                         Standard orientation:
 ---------------------------------------------------------------------
 Center     Atomic     Atomic              Coordinates (Angstroms)
 Number     Number      Type              X           Y           Z
 ---------------------------------------------------------------------
    1         20             0        2.069839   -0.753078    0.000009
    2          8             0       -0.000101   -0.331521   -1.196551
    3         15             0       -0.000033    0.799169    0.000009
    4          8             0        1.381646    1.464181   -0.000741
    5          8             0       -1.381714    1.464097   -0.000441
    6         20             0       -2.069831   -0.753094   -0.000001
    7          8             0        0.000209   -0.329771    1.197699
 ---------------------------------------------------------------------

 SCF Done:  E(RB+HF-LYP) =  -1997.39007840     A.U. after    8 cycles

 The electronic state is 1-A.
 Alpha  occ. eigenvalues -- -145.57697-145.57695 -77.31326 -19.22613 -19.22605
 Alpha  occ. eigenvalues --  -19.22311 -19.22275 -15.64398 -15.64396 -12.77597
 Alpha  occ. eigenvalues --  -12.77596 -12.77584 -12.77583 -12.77583 -12.77581
 Alpha  occ. eigenvalues --   -6.76048  -4.92396  -4.92389  -4.92312  -2.01227
 Alpha  occ. eigenvalues --   -2.01220  -1.29334  -1.28820  -1.28442  -1.28441
 Alpha  occ. eigenvalues --   -1.28386  -1.28337  -1.12988  -1.05493  -1.03663
 Alpha  occ. eigenvalues --   -1.01681  -0.62395  -0.53172  -0.53140  -0.52457
 Alpha  occ. eigenvalues --   -0.45688  -0.45584  -0.45184  -0.42425  -0.40458
 Alpha  occ. eigenvalues --   -0.39277  -0.37993  -0.35883
 Alpha virt. eigenvalues --   -0.23655  -0.22444  -0.14869  -0.13487  -0.12801
 Alpha virt. eigenvalues --   -0.12507  -0.10778  -0.08515  -0.07910  -0.06635
 Alpha virt. eigenvalues --   -0.05355  -0.05333  -0.04645  -0.04456  -0.04312

 Mulliken atomic charges:
              1
     1  Ca   1.483036
     2  O   -1.018033
     3  P    1.722068
     4  O   -0.825987
     5  O   -0.826012
     6  Ca   1.483042
     7  O   -1.018113
 Sum of Mulliken charges=   1.00000

 Dipole moment (field-independent basis, Debye):
    X=     0.0000    Y=   -13.9789    Z=    -0.0012  Tot=    13.9789
 Quadrupole moment (field-independent basis, Debye-Ang):
   XX=     3.5528   YY=   -55.5650   ZZ=   -66.7978
   XY=     0.0004   XZ=     0.0000   YZ=    -0.0018

 Normal termination of Gaussian 03 at Fri Jun 12 17:48:23 2015.
