 Gaussian 03, Revision E.01,
 Gaussian 03:  EM64T-G03RevE.01 11-Sep-2007

 ----------------------------------------------------
 # b3lyp/6-31+G(d,p) int=ultrafine pop=(ReadRadii,MK)
 ----------------------------------------------------

 -----------------------------------------
 mol_17.25.48.pdbcccc_plusQ.z58353.zip.xyz
 -----------------------------------------
 Symbolic Z-matrix:
 Charge =  1 Multiplicity = 1

                         Standard orientation:
 ---------------------------------------------------------------------
 Center     Atomic     Atomic              Coordinates (Angstroms)
 Number     Number      Type              X           Y           Z
 ---------------------------------------------------------------------
    1          8             0       -2.001018    1.617190    0.471109
    2          8             0       -1.724838    0.981539   -0.905731
    3         15             0       -2.762539   -0.000170    0.000329
    4          8             0       -1.724200   -0.981711    0.905889
    5          8             0       -2.001180   -1.617360   -0.470811
    6         20             0        0.372052    1.888898    0.026699
    7          8             0        1.498291    0.000207   -0.000391
    8         20             0        3.708711   -0.000044    0.000329
    9         20             0        0.372320   -1.888672   -0.027301
 ---------------------------------------------------------------------

 SCF Done:  E(RB+HF-LYP) =  -2749.96845303     A.U. after   11 cycles

 The electronic state is 1-A.
 Alpha  occ. eigenvalues -- -145.51905-145.51895-145.49784 -77.35642 -19.36717
 Alpha  occ. eigenvalues --  -19.36469 -19.34771 -19.34596 -19.19416 -15.58787
 Alpha  occ. eigenvalues --  -15.58778 -15.56799 -12.72018 -12.72008 -12.71972
 Alpha  occ. eigenvalues --  -12.71962 -12.71879 -12.71869 -12.69989 -12.69986
 Alpha  occ. eigenvalues --  -12.69857  -6.80398  -4.96837  -4.96569  -4.96205
 Alpha  occ. eigenvalues --   -1.95932  -1.95912  -1.93971  -1.28283  -1.25477
 Alpha  occ. eigenvalues --   -1.23594  -1.23581  -1.23423  -1.22863  -1.22690
 Alpha  occ. eigenvalues --   -1.21702  -1.21473  -1.21451  -1.21022  -1.00920
 Alpha  occ. eigenvalues --   -0.99135  -0.94535  -0.76281  -0.64426  -0.60371
 Alpha  occ. eigenvalues --   -0.59315  -0.58976  -0.53549  -0.52475  -0.47429
 Alpha  occ. eigenvalues --   -0.43909  -0.43170  -0.41497  -0.40529  -0.40169
 Alpha  occ. eigenvalues --   -0.38276  -0.25805
 Alpha virt. eigenvalues --   -0.20558  -0.19564  -0.19359  -0.18213  -0.14295
 Alpha virt. eigenvalues --   -0.14118  -0.13892  -0.12315  -0.11717  -0.10811
 Alpha virt. eigenvalues --   -0.10661  -0.09632  -0.08079  -0.07996  -0.07351

 Mulliken atomic charges:
              1
     1  O   -0.443899
     2  O   -0.385413
     3  P    0.916046
     4  O   -0.390834
     5  O   -0.438822
     6  Ca   1.086123
     7  O   -1.094220
     8  Ca   0.664428
     9  Ca   1.086591
 Sum of Mulliken charges=   1.00000

 Dipole moment (field-independent basis, Debye):
    X=     4.9373    Y=    -0.0276    Z=    -0.0507  Tot=     4.9376
 Quadrupole moment (field-independent basis, Debye-Ang):
   XX=   -66.1897   YY=   -59.9894   ZZ=   -88.0395
   XY=     0.0193   XZ=     0.0766   YZ=     0.8955

 Normal termination of Gaussian 03 at Fri Jun 12 17:58:57 2015.
