 Gaussian 03, Revision E.01,
 Gaussian 03:  EM64T-G03RevE.01 11-Sep-2007

 ----------------------------------------------------
 # b3lyp/6-31+G(d,p) int=ultrafine pop=(ReadRadii,MK)
 ----------------------------------------------------

 ---------------------------------------
 mol_17.27.47.pdbcc_plusQ.z58513.zip.xyz
 ---------------------------------------
 Symbolic Z-matrix:
 Charge =  1 Multiplicity = 1

                         Standard orientation:
 ---------------------------------------------------------------------
 Center     Atomic     Atomic              Coordinates (Angstroms)
 Number     Number      Type              X           Y           Z
 ---------------------------------------------------------------------
    1          8             0       -0.821871   -0.880170   -0.777231
    2          8             0       -0.821971   -0.880260    0.778499
    3          8             0        3.410829   -0.653181   -0.000761
    4         15             0        3.170440    0.867079   -0.000351
    5         20             0        1.221729   -1.492671    0.000159
    6         20             0       -3.076101   -0.693680   -0.000431
    7          8             0       -2.874340    1.416270   -0.000661
    8          8             0        1.613030    1.040119    0.000489
    9         20             0       -0.725730    1.518930    0.000399
 ---------------------------------------------------------------------

 SCF Done:  E(RB+HF-LYP) =  -2750.19922766     A.U. after    8 cycles

 The electronic state is 1-A.
 Alpha  occ. eigenvalues -- -145.53301-145.48101-145.46497 -77.31648 -19.29958
 Alpha  occ. eigenvalues --  -19.29136 -19.27654 -19.27649 -19.10310 -15.60146
 Alpha  occ. eigenvalues --  -15.54938 -15.53357 -12.73382 -12.73377 -12.73212
 Alpha  occ. eigenvalues --  -12.68156 -12.68121 -12.68041 -12.66611 -12.66574
 Alpha  occ. eigenvalues --  -12.66405  -6.77273  -4.93705  -4.93473  -4.93055
 Alpha  occ. eigenvalues --   -1.97330  -1.92135  -1.90667  -1.25313  -1.25142
 Alpha  occ. eigenvalues --   -1.25003  -1.20355  -1.19790  -1.19239  -1.18527
 Alpha  occ. eigenvalues --   -1.18450  -1.17870  -1.15552  -1.10906  -1.09762
 Alpha  occ. eigenvalues --   -0.91288  -0.84519  -0.68932  -0.57897  -0.55273
 Alpha  occ. eigenvalues --   -0.54484  -0.51217  -0.50442  -0.49458  -0.46901
 Alpha  occ. eigenvalues --   -0.45453  -0.42702  -0.38844  -0.36712  -0.30147
 Alpha  occ. eigenvalues --   -0.28562  -0.28509
 Alpha virt. eigenvalues --   -0.21599  -0.19564  -0.17910  -0.15028  -0.15010
 Alpha virt. eigenvalues --   -0.11254  -0.10532  -0.09852  -0.09287  -0.08794
 Alpha virt. eigenvalues --   -0.08675  -0.08136  -0.07318  -0.06844  -0.06403

 Mulliken atomic charges:
              1
     1  O   -0.694370
     2  O   -0.694311
     3  O   -0.647470
     4  P    0.680286
     5  Ca   1.503244
     6  Ca   1.363032
     7  O   -1.123864
     8  O   -0.742703
     9  Ca   1.356155
 Sum of Mulliken charges=   1.00000

 Dipole moment (field-independent basis, Debye):
    X=     0.3528    Y=    -7.6387    Z=     0.0011  Tot=     7.6468
 Quadrupole moment (field-independent basis, Debye-Ang):
   XX=   -63.3936   YY=   -57.0645   ZZ=   -77.2567
   XY=    23.1630   XZ=     0.0040   YZ=     0.0106

 Normal termination of Gaussian 03 at Fri Jun 12 18:06:37 2015.
