 Gaussian 03, Revision E.01,
 Gaussian 03:  EM64T-G03RevE.01 11-Sep-2007

 ----------------------------------------------------
 # b3lyp/6-31+G(d,p) int=ultrafine pop=(ReadRadii,MK)
 ----------------------------------------------------

 ---------------------------------------
 mol_16.4.9.pdb_plusQ.out.z51614.zip.xyz
 ---------------------------------------
 Symbolic Z-matrix:
 Charge =  1 Multiplicity = 1

                         Standard orientation:
 ---------------------------------------------------------------------
 Center     Atomic     Atomic              Coordinates (Angstroms)
 Number     Number      Type              X           Y           Z
 ---------------------------------------------------------------------
    1          8             0       -2.606590    1.936591    0.000000
    2         15             0       -1.426650    1.059501    0.000000
    3          8             0       -1.524161   -0.459939    0.000000
    4         20             0       -0.120193   -2.270040    0.000000
    5          8             0        1.760828   -1.307351    0.000000
    6         20             0        2.138149    0.771078    0.000000
    7          8             0        0.000000    1.591540    0.000000
 ---------------------------------------------------------------------

 SCF Done:  E(RB+HF-LYP) =  -1997.36495114     A.U. after    9 cycles

 The electronic state is 1-A'.
 Alpha  occ. eigenvalues -- -145.53602-145.53586 -77.35855 -19.29925 -19.29920
 Alpha  occ. eigenvalues --  -19.27566 -19.15848 -15.60457 -15.60442 -12.73708
 Alpha  occ. eigenvalues --  -12.73692 -12.73633 -12.73617 -12.73542 -12.73526
 Alpha  occ. eigenvalues --   -6.81064  -4.97682  -4.97211  -4.97115  -1.97569
 Alpha  occ. eigenvalues --   -1.97547  -1.25350  -1.25327  -1.25295  -1.25082
 Alpha  occ. eigenvalues --   -1.24705  -1.24174  -1.18398  -1.11377  -1.10409
 Alpha  occ. eigenvalues --   -0.90347  -0.67778  -0.60008  -0.56612  -0.55839
 Alpha  occ. eigenvalues --   -0.50171  -0.48049  -0.47792  -0.45420  -0.42510
 Alpha  occ. eigenvalues --   -0.36650  -0.34564  -0.34386
 Alpha virt. eigenvalues --   -0.22298  -0.20459  -0.16810  -0.14882  -0.13472
 Alpha virt. eigenvalues --   -0.12518  -0.11814  -0.10787  -0.09941  -0.08256
 Alpha virt. eigenvalues --   -0.07258  -0.06249  -0.05559  -0.05270  -0.04858

 Mulliken atomic charges:
              1
     1  O   -0.611932
     2  P    1.559490
     3  O   -0.860334
     4  Ca   1.485381
     5  O   -1.197450
     6  Ca   1.485190
     7  O   -0.860345
 Sum of Mulliken charges=   1.00000

 Dipole moment (field-independent basis, Debye):
    X=     6.9636    Y=    -5.1779    Z=     0.0000  Tot=     8.6777
 Quadrupole moment (field-independent basis, Debye-Ang):
   XX=   -50.9296   YY=   -31.5711   ZZ=   -53.5426
   XY=    32.0385   XZ=     0.0000   YZ=     0.0000

 Normal termination of Gaussian 03 at Fri Jun 12 17:49:02 2015.
