 Gaussian 03, Revision E.01,
 Gaussian 03:  EM64T-G03RevE.01 11-Sep-2007

 ----------------------------------------------------
 # b3lyp/6-31+G(d,p) int=ultrafine pop=(ReadRadii,MK)
 ----------------------------------------------------

 -------------------------------------
 mol_17.23.25.pdb_plusQ.z58226.zip.xyz
 -------------------------------------
 Symbolic Z-matrix:
 Charge =  1 Multiplicity = 1

                         Standard orientation:
 ---------------------------------------------------------------------
 Center     Atomic     Atomic              Coordinates (Angstroms)
 Number     Number      Type              X           Y           Z
 ---------------------------------------------------------------------
    1         20             0       -4.682701    0.156292   -0.000610
    2          8             0       -2.724451   -0.761280   -0.004780
    3          8             0       -2.609860    0.810890    0.004100
    4         20             0       -0.491441   -0.157531    0.001670
    5         15             0        2.136959   -1.171532    0.000440
    6          8             0        3.679809   -0.835703   -0.000610
    7          8             0        1.520209   -0.147062   -1.208700
    8         20             0        3.016520    1.312247   -0.001400
    9          8             0        1.521549   -0.147742    1.210020
 ---------------------------------------------------------------------

 SCF Done:  E(RB+HF-LYP) =  -2750.14409852     A.U. after   12 cycles

 The electronic state is 1-A.
 Alpha  occ. eigenvalues -- -145.59652-145.48628-145.43899 -77.20062 -19.26472
 Alpha  occ. eigenvalues --  -19.26346 -19.16479 -19.16476 -19.15792 -15.66413
 Alpha  occ. eigenvalues --  -15.55466 -15.50804 -12.79662 -12.79598 -12.79527
 Alpha  occ. eigenvalues --  -12.68643 -12.68640 -12.68623 -12.64060 -12.64016
 Alpha  occ. eigenvalues --  -12.63853  -6.65412  -4.81753  -4.81718  -4.81319
 Alpha  occ. eigenvalues --   -2.03278  -1.92583  -1.88209  -1.30836  -1.30754
 Alpha  occ. eigenvalues --   -1.30505  -1.20587  -1.19856  -1.19841  -1.16641
 Alpha  occ. eigenvalues --   -1.16118  -1.15837  -1.08584  -1.02430  -0.96158
 Alpha  occ. eigenvalues --   -0.94385  -0.90274  -0.57043  -0.49718  -0.48931
 Alpha  occ. eigenvalues --   -0.46809  -0.44549  -0.44260  -0.43973  -0.38610
 Alpha  occ. eigenvalues --   -0.38230  -0.37059  -0.34419  -0.33782  -0.32311
 Alpha  occ. eigenvalues --   -0.30258  -0.27549
 Alpha virt. eigenvalues --   -0.25825  -0.17523  -0.16503  -0.15806  -0.13521
 Alpha virt. eigenvalues --   -0.12018  -0.11001  -0.09021  -0.08623  -0.08131
 Alpha virt. eigenvalues --   -0.06570  -0.06280  -0.06032  -0.05658  -0.05416

 Mulliken atomic charges:
              1
     1  Ca   1.557200
     2  O   -0.640018
     3  O   -0.653967
     4  Ca   1.433653
     5  P    0.833497
     6  O   -0.881363
     7  O   -0.914589
     8  Ca   1.179667
     9  O   -0.914079
 Sum of Mulliken charges=   1.00000

 Dipole moment (field-independent basis, Debye):
    X=   -21.2085    Y=    10.1190    Z=    -0.0013  Tot=    23.4988
 Quadrupole moment (field-independent basis, Debye-Ang):
   XX=    62.4299   YY=   -69.5465   ZZ=   -88.0904
   XY=    28.2212   XZ=    -0.0207   YZ=    -0.0389

 Normal termination of Gaussian 03 at Fri Jun 12 17:53:02 2015.
