 Gaussian 03, Revision E.01,
 Gaussian 03:  EM64T-G03RevE.01 11-Sep-2007

 ----------------------------------------------------
 # b3lyp/6-31+G(d,p) int=ultrafine pop=(ReadRadii,MK)
 ----------------------------------------------------

 -------------------------------------------
 mol_16.4.45.pdbccc_plusQ.out.z51595.zip.xyz
 -------------------------------------------
 Symbolic Z-matrix:
 Charge =  1 Multiplicity = 1

                         Standard orientation:
 ---------------------------------------------------------------------
 Center     Atomic     Atomic              Coordinates (Angstroms)
 Number     Number      Type              X           Y           Z
 ---------------------------------------------------------------------
    1          8             0        0.940368   -0.757830   -0.002468
    2          8             0        0.221424   -2.032288    0.001232
    3         20             0       -1.853263   -0.986772   -0.000298
    4         15             0        2.553988   -0.625295    0.000172
    5          8             0       -1.391407    1.059007   -0.784448
    6          8             0       -1.390567    1.056267    0.785352
    7         20             0        0.585845    1.725681    0.000302
 ---------------------------------------------------------------------

 SCF Done:  E(RB+HF-LYP) =  -1997.09229772     A.U. after    8 cycles

 The electronic state is 1-A.
 Alpha  occ. eigenvalues -- -145.54271-145.53121 -77.27971 -19.41681 -19.29920
 Alpha  occ. eigenvalues --  -19.25681 -19.25676 -15.61106 -15.59959 -12.74328
 Alpha  occ. eigenvalues --  -12.74318 -12.74201 -12.73172 -12.73168 -12.73065
 Alpha  occ. eigenvalues --   -6.74402  -4.90964  -4.90749  -4.89707  -1.98198
 Alpha  occ. eigenvalues --   -1.97076  -1.26871  -1.26053  -1.25717  -1.25227
 Alpha  occ. eigenvalues --   -1.24613  -1.24511  -1.23345  -1.08460  -1.00489
 Alpha  occ. eigenvalues --   -0.89572  -0.72490  -0.61502  -0.58866  -0.56259
 Alpha  occ. eigenvalues --   -0.49099  -0.48087  -0.46148  -0.41412  -0.40046
 Alpha  occ. eigenvalues --   -0.37116  -0.35395  -0.34313
 Alpha virt. eigenvalues --   -0.27091  -0.20985  -0.19680  -0.16494  -0.14784
 Alpha virt. eigenvalues --   -0.12149  -0.11714  -0.10346  -0.09269  -0.09066
 Alpha virt. eigenvalues --   -0.08417  -0.07196  -0.06784  -0.05904  -0.05421

 Mulliken atomic charges:
              1
     1  O   -0.332641
     2  O   -0.458490
     3  Ca   1.479533
     4  P    0.200653
     5  O   -0.650133
     6  O   -0.649951
     7  Ca   1.411029
 Sum of Mulliken charges=   1.00000

 Dipole moment (field-independent basis, Debye):
    X=    -1.1446    Y=     2.3018    Z=    -0.0020  Tot=     2.5707
 Quadrupole moment (field-independent basis, Debye-Ang):
   XX=   -36.4177   YY=   -43.7044   ZZ=   -59.1399
   XY=    30.9449   XZ=     0.0087   YZ=     0.0232

 Normal termination of Gaussian 03 at Fri Jun 12 17:48:50 2015.
