 Gaussian 03, Revision E.01,
 Gaussian 03:  EM64T-G03RevE.01 11-Sep-2007

 ----------------------------------------------------
 # b3lyp/6-31+G(d,p) int=ultrafine pop=(ReadRadii,MK)
 ----------------------------------------------------

 -----------------------------------------
 mol_17.23.52.pdbcccc_plusQ.z58253.zip.xyz
 -----------------------------------------
 Symbolic Z-matrix:
 Charge =  1 Multiplicity = 1

                         Standard orientation:
 ---------------------------------------------------------------------
 Center     Atomic     Atomic              Coordinates (Angstroms)
 Number     Number      Type              X           Y           Z
 ---------------------------------------------------------------------
    1          8             0       -2.035962   -0.148071    1.260822
    2         15             0       -1.080602   -0.540031    0.028692
    3         20             0       -3.765762    0.381058   -0.016348
    4          8             0       -2.036502   -0.265991   -1.235548
    5          8             0        0.164378    0.499520   -0.022438
    6         20             0        1.583019   -1.579980    0.007342
    7         20             0        2.063218    1.674581   -0.015728
    8          8             0        3.113058   -0.125039    0.787452
    9          8             0        3.119968   -0.137009   -0.782248
 ---------------------------------------------------------------------

 SCF Done:  E(RB+HF-LYP) =  -2750.17194278     A.U. after    7 cycles

 The electronic state is 1-A.
 Alpha  occ. eigenvalues -- -145.53642-145.49338-145.48183 -77.24119 -19.20894
 Alpha  occ. eigenvalues --  -19.20711 -19.20630 -19.19333 -19.19241 -15.60490
 Alpha  occ. eigenvalues --  -15.56141 -15.55048 -12.73722 -12.73628 -12.73622
 Alpha  occ. eigenvalues --  -12.69351 -12.69327 -12.69265 -12.68266 -12.68264
 Alpha  occ. eigenvalues --  -12.68136  -6.69161  -4.85578  -4.85491  -4.85111
 Alpha  occ. eigenvalues --   -1.97578  -1.93342  -1.92241  -1.25233  -1.25110
 Alpha  occ. eigenvalues --   -1.24690  -1.21727  -1.20864  -1.20776  -1.19828
 Alpha  occ. eigenvalues --   -1.19795  -1.19417  -1.06614  -1.03540  -1.00548
 Alpha  occ. eigenvalues --   -0.99039  -0.84673  -0.60982  -0.50064  -0.48603
 Alpha  occ. eigenvalues --   -0.47731  -0.44236  -0.42866  -0.42013  -0.41550
 Alpha  occ. eigenvalues --   -0.40262  -0.38181  -0.36200  -0.35013  -0.31631
 Alpha  occ. eigenvalues --   -0.29764  -0.29745
 Alpha virt. eigenvalues --   -0.21411  -0.17993  -0.15547  -0.12881  -0.11862
 Alpha virt. eigenvalues --   -0.11071  -0.09857  -0.09106  -0.08401  -0.07186
 Alpha virt. eigenvalues --   -0.06693  -0.06186  -0.05753  -0.05730  -0.05003

 Mulliken atomic charges:
              1
     1  O   -0.848596
     2  P    0.458950
     3  Ca   1.449693
     4  O   -0.843156
     5  O   -0.792668
     6  Ca   1.457507
     7  Ca   1.431315
     8  O   -0.654937
     9  O   -0.658108
 Sum of Mulliken charges=   1.00000

 Dipole moment (field-independent basis, Debye):
    X=    -9.3702    Y=     5.0579    Z=    -0.1800  Tot=    10.6496
 Quadrupole moment (field-independent basis, Debye-Ang):
   XX=   -14.1898   YY=   -36.6169   ZZ=   -91.4149
   XY=    -2.9671   XZ=     0.4084   YZ=    -0.7317

 Normal termination of Gaussian 03 at Fri Jun 12 17:53:45 2015.
