 Gaussian 03, Revision E.01,
 Gaussian 03:  EM64T-G03RevE.01 11-Sep-2007

 ----------------------------------------------------
 # b3lyp/6-31+G(d,p) int=ultrafine pop=(ReadRadii,MK)
 ----------------------------------------------------

 --------------------------------------
 mol_17.28.29.pdbc_plusQ.z58552.zip.xyz
 --------------------------------------
 Symbolic Z-matrix:
 Charge =  1 Multiplicity = 1

                         Standard orientation:
 ---------------------------------------------------------------------
 Center     Atomic     Atomic              Coordinates (Angstroms)
 Number     Number      Type              X           Y           Z
 ---------------------------------------------------------------------
    1          8             0       -0.590720   -0.000025   -1.656661
    2          8             0        1.237298    1.284873   -0.441481
    3         20             0        1.627000    0.000010    1.389599
    4         15             0        1.064860   -0.000026   -1.531161
    5         20             0       -1.054489    1.671408   -0.138181
    6          8             0        1.237281   -1.284897   -0.441451
    7          8             0       -0.607700    0.000035    1.522509
    8         20             0       -1.054511   -1.671402   -0.138131
    9          8             0       -2.067770    0.000025    1.104799
 ---------------------------------------------------------------------

 SCF Done:  E(RB+HF-LYP) =  -2750.24881805     A.U. after    7 cycles

 The electronic state is 1-A.
 Alpha  occ. eigenvalues -- -145.52390-145.50181-145.50176 -77.25155 -19.25911
 Alpha  occ. eigenvalues --  -19.25460 -19.21787 -19.21787 -19.21336 -15.59148
 Alpha  occ. eigenvalues --  -15.56980 -15.56976 -12.72337 -12.72332 -12.72306
 Alpha  occ. eigenvalues --  -12.70187 -12.70186 -12.70178 -12.70178 -12.70099
 Alpha  occ. eigenvalues --  -12.70098  -6.70244  -4.86597  -4.86589  -4.86029
 Alpha  occ. eigenvalues --   -1.96326  -1.94231  -1.94165  -1.24348  -1.23881
 Alpha  occ. eigenvalues --   -1.23784  -1.22784  -1.22078  -1.21718  -1.21643
 Alpha  occ. eigenvalues --   -1.21523  -1.21225  -1.10028  -1.07331  -1.00853
 Alpha  occ. eigenvalues --   -1.00738  -0.89076  -0.63095  -0.51341  -0.51081
 Alpha  occ. eigenvalues --   -0.50980  -0.49233  -0.48444  -0.46045  -0.43795
 Alpha  occ. eigenvalues --   -0.43560  -0.38834  -0.38643  -0.38613  -0.35298
 Alpha  occ. eigenvalues --   -0.33990  -0.31701
 Alpha virt. eigenvalues --   -0.20302  -0.18389  -0.17631  -0.12783  -0.12605
 Alpha virt. eigenvalues --   -0.10903  -0.09920  -0.09096  -0.08255  -0.07951
 Alpha virt. eigenvalues --   -0.07350  -0.06563  -0.06018  -0.05818  -0.04926

 Mulliken atomic charges:
              1
     1  O   -1.035021
     2  O   -1.043868
     3  Ca   1.483191
     4  P    1.083339
     5  Ca   1.462570
     6  O   -1.043869
     7  O   -0.725425
     8  Ca   1.462572
     9  O   -0.643489
 Sum of Mulliken charges=   1.00000

 Dipole moment (field-independent basis, Debye):
    X=    -0.9355    Y=     0.0001    Z=     6.2023  Tot=     6.2725
 Quadrupole moment (field-independent basis, Debye-Ang):
   XX=   -63.6840   YY=   -44.2316   ZZ=   -80.5632
   XY=     0.0005   XZ=    28.3286   YZ=    -0.0008

 Normal termination of Gaussian 03 at Fri Jun 12 18:09:27 2015.
