 Gaussian 03, Revision E.01,
 Gaussian 03:  EM64T-G03RevE.01 11-Sep-2007

 ----------------------------------------------------
 # b3lyp/6-31+G(d,p) int=ultrafine pop=(ReadRadii,MK)
 ----------------------------------------------------

 -----------------------------------------
 mol_17.28.42.pdbcccc_plusQ.z58566.zip.xyz
 -----------------------------------------
 Symbolic Z-matrix:
 Charge =  1 Multiplicity = 1

                         Standard orientation:
 ---------------------------------------------------------------------
 Center     Atomic     Atomic              Coordinates (Angstroms)
 Number     Number      Type              X           Y           Z
 ---------------------------------------------------------------------
    1          8             0       -1.687110   -1.041682   -0.019281
    2          8             0        0.624577    1.105250   -0.005251
    3         15             0       -3.249860   -0.966354    0.012799
    4          8             0       -3.590372    0.534595    0.022459
    5          8             0        2.781630   -1.056807    0.789919
    6          8             0        2.793230   -1.052997   -0.779241
    7         20             0        2.870417    1.038013    0.010909
    8         20             0        0.679580   -1.278229   -0.010791
    9         20             0       -1.481383    1.569638   -0.013161
 ---------------------------------------------------------------------

 SCF Done:  E(RB+HF-LYP) =  -2750.21058684     A.U. after    9 cycles

 The electronic state is 1-A.
 Alpha  occ. eigenvalues -- -145.52562-145.47903-145.45928 -77.31432 -19.29692
 Alpha  occ. eigenvalues --  -19.28905 -19.20254 -19.20249 -19.17097 -15.59462
 Alpha  occ. eigenvalues --  -15.54771 -15.52791 -12.72726 -12.72684 -12.72482
 Alpha  occ. eigenvalues --  -12.67981 -12.67951 -12.67880 -12.66028 -12.65990
 Alpha  occ. eigenvalues --  -12.65876  -6.77031  -4.93462  -4.93236  -4.92818
 Alpha  occ. eigenvalues --   -1.96694  -1.92077  -1.90159  -1.24619  -1.24615
 Alpha  occ. eigenvalues --   -1.23580  -1.20503  -1.19686  -1.19273  -1.18005
 Alpha  occ. eigenvalues --   -1.17957  -1.17611  -1.15363  -1.09602  -1.02798
 Alpha  occ. eigenvalues --   -0.91878  -0.84035  -0.68622  -0.57620  -0.54915
 Alpha  occ. eigenvalues --   -0.54228  -0.46664  -0.45214  -0.43696  -0.42875
 Alpha  occ. eigenvalues --   -0.41966  -0.41269  -0.37529  -0.36626  -0.35920
 Alpha  occ. eigenvalues --   -0.30800  -0.29151
 Alpha virt. eigenvalues --   -0.21349  -0.20124  -0.17697  -0.14553  -0.13030
 Alpha virt. eigenvalues --   -0.11138  -0.10816  -0.10363  -0.09100  -0.08474
 Alpha virt. eigenvalues --   -0.07857  -0.07110  -0.06765  -0.06249  -0.05628

 Mulliken atomic charges:
              1
     1  O   -0.739444
     2  O   -1.322815
     3  P    0.680152
     4  O   -0.655867
     5  O   -0.654395
     6  O   -0.654039
     7  Ca   1.457016
     8  Ca   1.393396
     9  Ca   1.495996
 Sum of Mulliken charges=   1.00000

 Dipole moment (field-independent basis, Debye):
    X=    -1.5373    Y=     9.0302    Z=    -0.0729  Tot=     9.1604
 Quadrupole moment (field-independent basis, Debye-Ang):
   XX=   -64.0719   YY=   -51.7003   ZZ=   -77.1286
   XY=    21.8565   XZ=     0.3759   YZ=    -0.0031

 Normal termination of Gaussian 03 at Fri Jun 12 18:10:06 2015.
