 Gaussian 03, Revision E.01,
 Gaussian 03:  EM64T-G03RevE.01 11-Sep-2007

 ----------------------------------------------------
 # b3lyp/6-31+G(d,p) int=ultrafine pop=(ReadRadii,MK)
 ----------------------------------------------------

 -----------------------------------------
 mol_17.28.13.pdbcccc_plusQ.z58535.zip.xyz
 -----------------------------------------
 Symbolic Z-matrix:
 Charge =  1 Multiplicity = 1

                         Standard orientation:
 ---------------------------------------------------------------------
 Center     Atomic     Atomic              Coordinates (Angstroms)
 Number     Number      Type              X           Y           Z
 ---------------------------------------------------------------------
    1          8             0        2.562730    0.081414    0.389412
    2          8             0        1.261102    0.754408    0.700412
    3         15             0        0.047759   -0.058718    1.762912
    4         20             0        1.283506   -1.226942   -0.925398
    5          8             0       -0.168115   -1.450718    0.923042
    6         20             0       -2.034753   -0.777652   -0.272418
    7          8             0       -0.500001   -0.010517   -1.701078
    8         20             0       -0.083695    1.948112   -0.697028
    9          8             0       -1.157908    0.876715    1.119862
 ---------------------------------------------------------------------

 SCF Done:  E(RB+HF-LYP) =  -2750.19417636     A.U. after    9 cycles

 The electronic state is 1-A.
 Alpha  occ. eigenvalues -- -145.51674-145.51602-145.48698 -77.27305 -19.29098
 Alpha  occ. eigenvalues --  -19.23577 -19.23491 -19.23303 -19.17353 -15.58486
 Alpha  occ. eigenvalues --  -15.58427 -15.55546 -12.71699 -12.71662 -12.71634
 Alpha  occ. eigenvalues --  -12.71613 -12.71600 -12.71555 -12.68774 -12.68740
 Alpha  occ. eigenvalues --  -12.68640  -6.72403  -4.88808  -4.88694  -4.88160
 Alpha  occ. eigenvalues --   -1.95729  -1.95674  -1.92857  -1.23981  -1.23557
 Alpha  occ. eigenvalues --   -1.23418  -1.23067  -1.23034  -1.22533  -1.21065
 Alpha  occ. eigenvalues --   -1.20533  -1.19961  -1.13358  -1.07579  -1.03121
 Alpha  occ. eigenvalues --   -0.92324  -0.90591  -0.65539  -0.55302  -0.53394
 Alpha  occ. eigenvalues --   -0.51719  -0.49585  -0.46923  -0.44132  -0.42336
 Alpha  occ. eigenvalues --   -0.40305  -0.37802  -0.37636  -0.36830  -0.35228
 Alpha  occ. eigenvalues --   -0.33502  -0.32030
 Alpha virt. eigenvalues --   -0.20906  -0.19069  -0.17409  -0.13460  -0.12276
 Alpha virt. eigenvalues --   -0.11630  -0.10497  -0.10039  -0.08918  -0.08221
 Alpha virt. eigenvalues --   -0.07990  -0.06860  -0.06591  -0.06166  -0.05827

 Mulliken atomic charges:
              1
     1  O   -0.569006
     2  O   -0.591087
     3  P    1.101758
     4  Ca   1.417180
     5  O   -1.018910
     6  Ca   1.429156
     7  O   -1.261605
     8  Ca   1.493595
     9  O   -1.001079
 Sum of Mulliken charges=   1.00000

 Dipole moment (field-independent basis, Debye):
    X=    -6.9560    Y=    -0.0778    Z=    -8.5240  Tot=    11.0023
 Quadrupole moment (field-independent basis, Debye-Ang):
   XX=   -58.4250   YY=   -40.8426   ZZ=   -88.3279
   XY=    -0.2873   XZ=    -9.1488   YZ=    -0.1230

 Normal termination of Gaussian 03 at Fri Jun 12 18:08:46 2015.
