 Gaussian 03, Revision E.01,
 Gaussian 03:  EM64T-G03RevE.01 11-Sep-2007

 ----------------------------------------------------
 # b3lyp/6-31+G(d,p) int=ultrafine pop=(ReadRadii,MK)
 ----------------------------------------------------

 ---------------------------------------
 mol_17.27.3.pdbccc_plusQ.z58506.zip.xyz
 ---------------------------------------
 Symbolic Z-matrix:
 Charge =  1 Multiplicity = 1

                         Standard orientation:
 ---------------------------------------------------------------------
 Center     Atomic     Atomic              Coordinates (Angstroms)
 Number     Number      Type              X           Y           Z
 ---------------------------------------------------------------------
    1          8             0        2.870202   -0.825423   -0.766369
    2          8             0        2.870002   -0.825413    0.766651
    3         15             0        2.872344    0.756837    0.000121
    4          8             0        1.357764    1.113249   -0.000069
    5         20             0        0.608751   -1.390670   -0.000159
    6          8             0       -1.287347   -0.164828   -0.000169
    7          8             0       -1.651439   -1.661797   -0.000079
    8         20             0       -3.573967   -0.305875    0.000171
    9         20             0       -0.852715    2.074602   -0.000089
 ---------------------------------------------------------------------

 SCF Done:  E(RB+HF-LYP) =  -2750.03001909     A.U. after   13 cycles

 The electronic state is 1-A.
 Alpha  occ. eigenvalues -- -145.52660-145.51807-145.51042 -77.34130 -19.37095
 Alpha  occ. eigenvalues --  -19.37089 -19.29765 -19.27656 -19.27431 -15.59457
 Alpha  occ. eigenvalues --  -15.58668 -15.57990 -12.72720 -12.72669 -12.72538
 Alpha  occ. eigenvalues --  -12.71880 -12.71831 -12.71786 -12.71205 -12.71159
 Alpha  occ. eigenvalues --  -12.71079  -6.79404  -4.95765  -4.95683  -4.95168
 Alpha  occ. eigenvalues --   -1.96588  -1.95712  -1.95077  -1.28636  -1.24671
 Alpha  occ. eigenvalues --   -1.24375  -1.23572  -1.23205  -1.23074  -1.22944
 Alpha  occ. eigenvalues --   -1.22618  -1.22485  -1.22274  -1.13203  -1.11129
 Alpha  occ. eigenvalues --   -1.01154  -0.91462  -0.73937  -0.61850  -0.60355
 Alpha  occ. eigenvalues --   -0.59028  -0.54793  -0.52812  -0.50902  -0.50000
 Alpha  occ. eigenvalues --   -0.48649  -0.47683  -0.43854  -0.43413  -0.39135
 Alpha  occ. eigenvalues --   -0.35543  -0.25626
 Alpha virt. eigenvalues --   -0.20407  -0.19956  -0.17740  -0.17387  -0.14541
 Alpha virt. eigenvalues --   -0.13854  -0.12941  -0.11525  -0.11400  -0.10539
 Alpha virt. eigenvalues --   -0.10435  -0.08991  -0.07937  -0.07710  -0.07102

 Mulliken atomic charges:
              1
     1  O   -0.366988
     2  O   -0.366998
     3  P    0.831375
     4  O   -0.765293
     5  Ca   1.419217
     6  O   -0.542591
     7  O   -0.672445
     8  Ca   0.786949
     9  Ca   0.676775
 Sum of Mulliken charges=   1.00000

 Dipole moment (field-independent basis, Debye):
    X=    -3.3547    Y=    -1.2866    Z=    -0.0005  Tot=     3.5929
 Quadrupole moment (field-independent basis, Debye-Ang):
   XX=   -60.1076   YY=   -68.0824   ZZ=   -85.6533
   XY=     7.5663   XZ=    -0.0027   YZ=     0.0000

 Normal termination of Gaussian 03 at Fri Jun 12 18:07:24 2015.
