 Gaussian 03, Revision E.01,
 Gaussian 03:  EM64T-G03RevE.01 11-Sep-2007

 ----------------------------------------------------
 # b3lyp/6-31+G(d,p) int=ultrafine pop=(ReadRadii,MK)
 ----------------------------------------------------

 ----------------------------------------
 mol_17.28.33.pdbccc_plusQ.z58557.zip.xyz
 ----------------------------------------
 Symbolic Z-matrix:
 Charge =  1 Multiplicity = 1

                         Standard orientation:
 ---------------------------------------------------------------------
 Center     Atomic     Atomic              Coordinates (Angstroms)
 Number     Number      Type              X           Y           Z
 ---------------------------------------------------------------------
    1          8             0        1.725912   -1.491497    0.000122
    2          8             0       -0.564781    1.106000   -0.000198
    3         20             0       -2.818321    0.993567    0.000152
    4          8             0       -2.712798   -1.088373    0.785012
    5          8             0       -2.713058   -1.088323   -0.784828
    6         20             0       -0.597988   -1.308290   -0.000258
    7         15             0        3.194432   -1.029125    0.000202
    8         20             0        1.432328    1.902533   -0.000028
    9          8             0        3.235120    0.522275   -0.000148
 ---------------------------------------------------------------------

 SCF Done:  E(RB+HF-LYP) =  -2750.20951950     A.U. after    8 cycles

 The electronic state is 1-A.
 Alpha  occ. eigenvalues -- -145.53396-145.48023-145.44978 -77.30022 -19.27964
 Alpha  occ. eigenvalues --  -19.27482 -19.19914 -19.19908 -19.17880 -15.60298
 Alpha  occ. eigenvalues --  -15.54889 -15.51856 -12.73554 -12.73507 -12.73334
 Alpha  occ. eigenvalues --  -12.68098 -12.68071 -12.67999 -12.65099 -12.65062
 Alpha  occ. eigenvalues --  -12.64932  -6.75541  -4.91985  -4.91757  -4.91321
 Alpha  occ. eigenvalues --   -1.97519  -1.92194  -1.89239  -1.25377  -1.25257
 Alpha  occ. eigenvalues --   -1.24382  -1.20508  -1.19792  -1.19393  -1.17218
 Alpha  occ. eigenvalues --   -1.17082  -1.16764  -1.13769  -1.08258  -1.02445
 Alpha  occ. eigenvalues --   -0.92462  -0.83749  -0.67357  -0.56792  -0.52840
 Alpha  occ. eigenvalues --   -0.52587  -0.45478  -0.43600  -0.43400  -0.41977
 Alpha  occ. eigenvalues --   -0.41117  -0.40749  -0.37991  -0.37313  -0.36419
 Alpha  occ. eigenvalues --   -0.30523  -0.28910
 Alpha virt. eigenvalues --   -0.21329  -0.19765  -0.18064  -0.13534  -0.13442
 Alpha virt. eigenvalues --   -0.11691  -0.10903  -0.10463  -0.08649  -0.08278
 Alpha virt. eigenvalues --   -0.07168  -0.06873  -0.06457  -0.06203  -0.05657

 Mulliken atomic charges:
              1
     1  O   -0.677417
     2  O   -1.348030
     3  Ca   1.443453
     4  O   -0.651202
     5  O   -0.651194
     6  Ca   1.406415
     7  P    0.665923
     8  Ca   1.527506
     9  O   -0.715452
 Sum of Mulliken charges=   1.00000

 Dipole moment (field-independent basis, Debye):
    X=     1.2578    Y=    12.1937    Z=     0.0001  Tot=    12.2584
 Quadrupole moment (field-independent basis, Debye-Ang):
   XX=   -63.3347   YY=   -46.1924   ZZ=   -77.2341
   XY=   -15.9568   XZ=    -0.0007   YZ=     0.0068

 Normal termination of Gaussian 03 at Fri Jun 12 18:09:41 2015.
