 Gaussian 03, Revision E.01,
 Gaussian 03:  EM64T-G03RevE.01 11-Sep-2007

 ----------------------------------------------------
 # b3lyp/6-31+G(d,p) int=ultrafine pop=(ReadRadii,MK)
 ----------------------------------------------------

 ---------------------------------------
 mol_17.25.5.pdbccc_plusQ.z58364.zip.xyz
 ---------------------------------------
 Symbolic Z-matrix:
 Charge =  1 Multiplicity = 1

                         Standard orientation:
 ---------------------------------------------------------------------
 Center     Atomic     Atomic              Coordinates (Angstroms)
 Number     Number      Type              X           Y           Z
 ---------------------------------------------------------------------
    1         20             0        0.905626   -1.943579   -0.005730
    2          8             0       -2.595051    0.180328    0.002890
    3         15             0       -2.737926   -1.353322    0.004610
    4         20             0       -1.812539    2.345161   -0.005000
    5          8             0       -1.349263   -2.034027    0.001390
    6          8             0        1.937720   -0.265295    1.196240
    7          8             0        2.809851   -0.493202    0.000590
    8          8             0        1.940330   -0.258915   -1.196210
    9         20             0        1.862923    1.761855    0.005310
 ---------------------------------------------------------------------

 SCF Done:  E(RB+HF-LYP) =  -2750.06909896     A.U. after   10 cycles

 The electronic state is 1-A.
 Alpha  occ. eigenvalues -- -145.52279-145.51797-145.50941 -77.29705 -19.37668
 Alpha  occ. eigenvalues --  -19.28188 -19.28188 -19.27638 -19.27351 -15.59082
 Alpha  occ. eigenvalues --  -15.58773 -15.57876 -12.72317 -12.72288 -12.72186
 Alpha  occ. eigenvalues --  -12.71970 -12.71953 -12.71846 -12.71088 -12.71051
 Alpha  occ. eigenvalues --  -12.70975  -6.75180  -4.91625  -4.91407  -4.90957
 Alpha  occ. eigenvalues --   -1.96206  -1.95881  -1.95034  -1.27034  -1.23887
 Alpha  occ. eigenvalues --   -1.23720  -1.23384  -1.23307  -1.23028  -1.22828
 Alpha  occ. eigenvalues --   -1.22501  -1.22424  -1.19088  -1.13496  -1.08177
 Alpha  occ. eigenvalues --   -1.03931  -0.88849  -0.67514  -0.57939  -0.57315
 Alpha  occ. eigenvalues --   -0.56325  -0.55923  -0.52317  -0.52176  -0.45421
 Alpha  occ. eigenvalues --   -0.44268  -0.43618  -0.42165  -0.40200  -0.39538
 Alpha  occ. eigenvalues --   -0.36831  -0.27624
 Alpha virt. eigenvalues --   -0.19454  -0.18923  -0.17830  -0.14938  -0.14700
 Alpha virt. eigenvalues --   -0.13320  -0.12240  -0.11269  -0.10016  -0.09136
 Alpha virt. eigenvalues --   -0.07995  -0.07829  -0.07793  -0.06848  -0.06778

 Mulliken atomic charges:
              1
     1  Ca   1.420514
     2  O   -0.626966
     3  P    0.685459
     4  Ca   0.628520
     5  O   -0.710109
     6  O   -0.605904
     7  O   -0.047051
     8  O   -0.606041
     9  Ca   0.861578
 Sum of Mulliken charges=   1.00000

 Dipole moment (field-independent basis, Debye):
    X=     0.2647    Y=     1.6268    Z=    -0.0293  Tot=     1.6485
 Quadrupole moment (field-independent basis, Debye-Ang):
   XX=   -66.0519   YY=   -43.2765   ZZ=   -89.4162
   XY=    -8.8207   XZ=     0.0859   YZ=     0.1145

 Normal termination of Gaussian 03 at Fri Jun 12 17:59:19 2015.
