 Gaussian 03, Revision E.01,
 Gaussian 03:  EM64T-G03RevE.01 11-Sep-2007

 ----------------------------------------------------
 # b3lyp/6-31+G(d,p) int=ultrafine pop=(ReadRadii,MK)
 ----------------------------------------------------

 ----------------------------------------
 mol_17.27.56.pdbccc_plusQ.z58522.zip.xyz
 ----------------------------------------
 Symbolic Z-matrix:
 Charge =  1 Multiplicity = 1

                         Standard orientation:
 ---------------------------------------------------------------------
 Center     Atomic     Atomic              Coordinates (Angstroms)
 Number     Number      Type              X           Y           Z
 ---------------------------------------------------------------------
    1          8             0       -2.213479   -1.470971    0.028681
    2          8             0        0.336431   -0.930129   -0.295199
    3         15             0       -1.140069   -0.788180   -0.945009
    4         20             0       -3.240600    0.345329    0.695301
    5          8             0       -1.427350    0.891470   -0.494059
    6         20             0        0.809369    1.499301   -0.321499
    7         20             0        2.446761   -1.282378    0.368771
    8          8             0        2.459180    0.833782    1.082701
    9          8             0        2.944020    0.748053   -0.406659
 ---------------------------------------------------------------------

 SCF Done:  E(RB+HF-LYP) =  -2750.19795396     A.U. after    7 cycles

 The electronic state is 1-A.
 Alpha  occ. eigenvalues -- -145.54447-145.49721-145.46326 -77.24443 -19.21805
 Alpha  occ. eigenvalues --  -19.21264 -19.20895 -19.20749 -19.20336 -15.61307
 Alpha  occ. eigenvalues --  -15.56519 -15.53234 -12.74538 -12.74445 -12.74436
 Alpha  occ. eigenvalues --  -12.69730 -12.69704 -12.69646 -12.66469 -12.66457
 Alpha  occ. eigenvalues --  -12.66286  -6.69519  -4.85928  -4.85846  -4.85332
 Alpha  occ. eigenvalues --   -1.98422  -1.93703  -1.90586  -1.26087  -1.25912
 Alpha  occ. eigenvalues --   -1.25560  -1.21831  -1.21219  -1.21109  -1.18483
 Alpha  occ. eigenvalues --   -1.18339  -1.18048  -1.06952  -1.03525  -1.01166
 Alpha  occ. eigenvalues --   -0.99573  -0.84632  -0.62351  -0.51032  -0.50134
 Alpha  occ. eigenvalues --   -0.47440  -0.44521  -0.44227  -0.42687  -0.41960
 Alpha  occ. eigenvalues --   -0.40830  -0.38693  -0.37819  -0.37549  -0.31574
 Alpha  occ. eigenvalues --   -0.30329  -0.29524
 Alpha virt. eigenvalues --   -0.22209  -0.18030  -0.15325  -0.13699  -0.12623
 Alpha virt. eigenvalues --   -0.11335  -0.10041  -0.08830  -0.08449  -0.07262
 Alpha virt. eigenvalues --   -0.07131  -0.06055  -0.05723  -0.05627  -0.05087

 Mulliken atomic charges:
              1
     1  O   -0.864406
     2  O   -1.011361
     3  P    0.902704
     4  Ca   1.411372
     5  O   -1.061087
     6  Ca   1.452359
     7  Ca   1.479073
     8  O   -0.657793
     9  O   -0.650861
 Sum of Mulliken charges=   1.00000

 Dipole moment (field-independent basis, Debye):
    X=    -6.6243    Y=     1.0586    Z=     4.9116  Tot=     8.3142
 Quadrupole moment (field-independent basis, Debye-Ang):
   XX=   -22.5454   YY=   -60.2995   ZZ=   -77.3548
   XY=   -40.6778   XZ=   -17.4025   YZ=    -6.2214

 Normal termination of Gaussian 03 at Fri Jun 12 18:07:59 2015.
