 Gaussian 03, Revision E.01,
 Gaussian 03:  EM64T-G03RevE.01 11-Sep-2007

 ----------------------------------------------------
 # b3lyp/6-31+G(d,p) int=ultrafine pop=(ReadRadii,MK)
 ----------------------------------------------------

 --------------------------------------
 mol_17.25.15.pdbc_plusQ.z58322.zip.xyz
 --------------------------------------
 Symbolic Z-matrix:
 Charge =  1 Multiplicity = 1

                         Standard orientation:
 ---------------------------------------------------------------------
 Center     Atomic     Atomic              Coordinates (Angstroms)
 Number     Number      Type              X           Y           Z
 ---------------------------------------------------------------------
    1          8             0        1.127570    1.460330   -0.000359
    2          8             0        3.543279    0.694160   -0.000129
    3         15             0        2.604440    1.918420   -0.001019
    4         20             0        3.427589   -1.610260   -0.000169
    5         20             0       -0.244631   -0.379219    0.000761
    6          8             0       -2.323041   -0.308429    1.190821
    7          8             0       -2.496181   -1.204309    0.004941
    8          8             0       -2.323471   -0.319469   -1.189239
    9         20             0       -4.147551    0.421751   -0.002239
 ---------------------------------------------------------------------

 SCF Done:  E(RB+HF-LYP) =  -2750.03293846     A.U. after   16 cycles

 The electronic state is 1-A.
 Alpha  occ. eigenvalues -- -145.56217-145.50767-145.48704 -77.27371 -19.38536
 Alpha  occ. eigenvalues --  -19.29089 -19.29080 -19.25156 -19.25019 -15.63054
 Alpha  occ. eigenvalues --  -15.57763 -15.55534 -12.76283 -12.76223 -12.76181
 Alpha  occ. eigenvalues --  -12.70953 -12.70941 -12.70840 -12.68760 -12.68735
 Alpha  occ. eigenvalues --  -12.68648  -6.72903  -4.89349  -4.89126  -4.88678
 Alpha  occ. eigenvalues --   -2.00006  -1.94838  -1.92696  -1.29462  -1.27543
 Alpha  occ. eigenvalues --   -1.27236  -1.23496  -1.22300  -1.22226  -1.22038
 Alpha  occ. eigenvalues --   -1.20331  -1.20288  -1.18554  -1.11272  -1.05789
 Alpha  occ. eigenvalues --   -1.04633  -0.89675  -0.64880  -0.58699  -0.57715
 Alpha  occ. eigenvalues --   -0.56849  -0.54320  -0.50183  -0.49936  -0.44981
 Alpha  occ. eigenvalues --   -0.42927  -0.42671  -0.41064  -0.39888  -0.38405
 Alpha  occ. eigenvalues --   -0.37931  -0.25357
 Alpha virt. eigenvalues --   -0.23453  -0.17324  -0.16525  -0.15267  -0.14037
 Alpha virt. eigenvalues --   -0.13315  -0.13275  -0.11184  -0.10576  -0.09988
 Alpha virt. eigenvalues --   -0.08531  -0.07696  -0.07311  -0.07047  -0.06848

 Mulliken atomic charges:
              1
     1  O   -0.656020
     2  O   -0.611958
     3  P    0.710127
     4  Ca   0.260733
     5  Ca   1.000977
     6  O   -0.620134
     7  O   -0.025287
     8  O   -0.620128
     9  Ca   1.561690
 Sum of Mulliken charges=   1.00000

 Dipole moment (field-independent basis, Debye):
    X=    -8.1021    Y=    -0.2177    Z=    -0.0172  Tot=     8.1051
 Quadrupole moment (field-independent basis, Debye-Ang):
   XX=    16.3470   YY=   -83.3980   ZZ=   -90.4506
   XY=   -29.1482   XZ=     0.0631   YZ=    -0.0359

 Normal termination of Gaussian 03 at Fri Jun 12 17:58:12 2015.
