 Gaussian 03, Revision E.01,
 Gaussian 03:  EM64T-G03RevE.01 11-Sep-2007

 ----------------------------------------------------
 # b3lyp/6-31+G(d,p) int=ultrafine pop=(ReadRadii,MK)
 ----------------------------------------------------

 -------------------------------------------
 mol_16.4.29.pdb_plusQccc.out.z51579.zip.xyz
 -------------------------------------------
 Symbolic Z-matrix:
 Charge =  1 Multiplicity = 1

                         Standard orientation:
 ---------------------------------------------------------------------
 Center     Atomic     Atomic              Coordinates (Angstroms)
 Number     Number      Type              X           Y           Z
 ---------------------------------------------------------------------
    1          8             0       -1.713030    0.001337    0.786670
    2          8             0       -1.714184    0.001337   -0.785700
    3         20             0       -0.760047    1.858547   -0.000189
    4         15             0        2.320127   -0.001814    0.000128
    5          8             0        1.443632    1.272409   -0.000117
    6          8             0        1.441256   -1.274344   -0.000210
    7         20             0       -0.763118   -1.857482   -0.000164
 ---------------------------------------------------------------------

 SCF Done:  E(RB+HF-LYP) =  -1997.33372463     A.U. after    6 cycles

 The electronic state is 1-A.
 Alpha  occ. eigenvalues -- -145.53247-145.53246 -77.30162 -19.27955 -19.27949
 Alpha  occ. eigenvalues --  -19.25605 -19.25572 -15.60094 -15.60093 -12.73309
 Alpha  occ. eigenvalues --  -12.73308 -12.73291 -12.73290 -12.73209 -12.73206
 Alpha  occ. eigenvalues --   -6.75643  -4.92083  -4.91868  -4.91423  -1.97237
 Alpha  occ. eigenvalues --   -1.97210  -1.25766  -1.24806  -1.24792  -1.24726
 Alpha  occ. eigenvalues --   -1.24726  -1.24303  -1.13926  -1.08555  -1.08251
 Alpha  occ. eigenvalues --   -0.89521  -0.67705  -0.57282  -0.52824  -0.52601
 Alpha  occ. eigenvalues --   -0.48994  -0.47945  -0.46121  -0.45762  -0.43900
 Alpha  occ. eigenvalues --   -0.40702  -0.37190  -0.34166
 Alpha virt. eigenvalues --   -0.20457  -0.19853  -0.19631  -0.14481  -0.11367
 Alpha virt. eigenvalues --   -0.11280  -0.10319  -0.09667  -0.09043  -0.07375
 Alpha virt. eigenvalues --   -0.07215  -0.06432  -0.05962  -0.05215  -0.04858

 Mulliken atomic charges:
              1
     1  O   -0.668847
     2  O   -0.668240
     3  Ca   1.543994
     4  P    0.668751
     5  O   -0.709899
     6  O   -0.709768
     7  Ca   1.544010
 Sum of Mulliken charges=   1.00000

 Dipole moment (field-independent basis, Debye):
    X=    -3.1391    Y=     0.0000    Z=    -0.0070  Tot=     3.1391
 Quadrupole moment (field-independent basis, Debye-Ang):
   XX=   -66.5082   YY=    -8.8891   ZZ=   -58.2531
   XY=     0.0448   XZ=     0.0099   YZ=    -0.0009

 Normal termination of Gaussian 03 at Fri Jun 12 17:48:11 2015.
