 Gaussian 03, Revision E.01,
 Gaussian 03:  EM64T-G03RevE.01 11-Sep-2007

 ----------------------------------------------------
 # b3lyp/6-31+G(d,p) int=ultrafine pop=(ReadRadii,MK)
 ----------------------------------------------------

 --------------------------------------
 mol_17.26.7.pdbcc_plusQ.z58473.zip.xyz
 --------------------------------------
 Symbolic Z-matrix:
 Charge =  1 Multiplicity = 1

                         Standard orientation:
 ---------------------------------------------------------------------
 Center     Atomic     Atomic              Coordinates (Angstroms)
 Number     Number      Type              X           Y           Z
 ---------------------------------------------------------------------
    1          8             0       -1.013281   -0.298321    1.330030
    2          8             0        0.302180   -1.011009    1.270350
    3         15             0        0.674060   -0.829859   -0.368650
    4          8             0        2.130391   -1.450327   -0.445080
    5         20             0        3.226479    0.410524   -0.054770
    6          8             0        1.030658    0.828021   -0.377150
    7         20             0       -1.082253    1.792709    0.170860
    8          8             0       -2.793452    0.884747   -0.750250
    9         20             0       -2.512370   -1.162083   -0.250760
 ---------------------------------------------------------------------

 SCF Done:  E(RB+HF-LYP) =  -2750.12302176     A.U. after    9 cycles

 The electronic state is 1-A.
 Alpha  occ. eigenvalues -- -145.57070-145.47491-145.45558 -77.26969 -19.28251
 Alpha  occ. eigenvalues --  -19.24159 -19.24080 -19.22571 -19.09847 -15.63881
 Alpha  occ. eigenvalues --  -15.54324 -15.52419 -12.77116 -12.77028 -12.77018
 Alpha  occ. eigenvalues --  -12.67556 -12.67496 -12.67428 -12.65648 -12.65618
 Alpha  occ. eigenvalues --  -12.65496  -6.72187  -4.88571  -4.88535  -4.88011
 Alpha  occ. eigenvalues --   -2.00885  -1.91499  -1.89735  -1.28492  -1.28404
 Alpha  occ. eigenvalues --   -1.28008  -1.19391  -1.19171  -1.18537  -1.17642
 Alpha  occ. eigenvalues --   -1.17429  -1.16718  -1.14612  -1.07352  -1.02843
 Alpha  occ. eigenvalues --   -0.91104  -0.83977  -0.65108  -0.54559  -0.52884
 Alpha  occ. eigenvalues --   -0.52275  -0.48262  -0.47276  -0.43235  -0.41037
 Alpha  occ. eigenvalues --   -0.40276  -0.36106  -0.35026  -0.33482  -0.29715
 Alpha  occ. eigenvalues --   -0.28017  -0.27832
 Alpha virt. eigenvalues --   -0.23600  -0.17047  -0.16269  -0.14372  -0.13664
 Alpha virt. eigenvalues --   -0.11438  -0.09846  -0.08794  -0.08418  -0.07778
 Alpha virt. eigenvalues --   -0.07385  -0.06576  -0.05965  -0.05886  -0.05287

 Mulliken atomic charges:
              1
     1  O   -0.625549
     2  O   -0.381929
     3  P    0.877489
     4  O   -0.942069
     5  Ca   1.490086
     6  O   -1.042451
     7  Ca   1.388276
     8  O   -1.127018
     9  Ca   1.363167
 Sum of Mulliken charges=   1.00000

 Dipole moment (field-independent basis, Debye):
    X=     9.9084    Y=     4.1521    Z=     1.1024  Tot=    10.7996
 Quadrupole moment (field-independent basis, Debye-Ang):
   XX=   -14.0807   YY=   -55.1527   ZZ=   -88.1464
   XY=    38.4995   XZ=    -4.1274   YZ=    10.5217

 Normal termination of Gaussian 03 at Fri Jun 12 18:02:44 2015.
