 Gaussian 03, Revision E.01,
 Gaussian 03:  EM64T-G03RevE.01 11-Sep-2007

 ----------------------------------------------------
 # b3lyp/6-31+G(d,p) int=ultrafine pop=(ReadRadii,MK)
 ----------------------------------------------------

 -----------------------------------------
 mol_17.22.43.pdbcccc_plusQ.z58193.zip.xyz
 -----------------------------------------
 Symbolic Z-matrix:
 Charge =  1 Multiplicity = 1

                         Standard orientation:
 ---------------------------------------------------------------------
 Center     Atomic     Atomic              Coordinates (Angstroms)
 Number     Number      Type              X           Y           Z
 ---------------------------------------------------------------------
    1          8             0       -1.931210    0.724079   -0.294758
    2         15             0       -1.434619   -0.520080    1.033372
    3         20             0       -3.584509   -0.723242   -0.518848
    4         20             0        1.355732   -1.271438    0.255812
    5          8             0        3.291031   -0.784047   -1.044718
    6          8             0        3.638851   -0.593247    0.174412
    7          8             0        1.959310    0.978782    0.479482
    8          8             0        1.579470    0.751732   -0.892208
    9         20             0       -0.110240    1.953821    0.119122
 ---------------------------------------------------------------------

 SCF Done:  E(RB+HF-LYP) =  -2749.87450019     A.U. after   16 cycles

 The electronic state is 1-A.
 Alpha  occ. eigenvalues -- -145.55482-145.50919-145.48158 -77.15341 -19.32878
 Alpha  occ. eigenvalues --  -19.32833 -19.26600 -19.26516 -19.21430 -15.62344
 Alpha  occ. eigenvalues --  -15.57744 -15.55067 -12.75568 -12.75520 -12.75450
 Alpha  occ. eigenvalues --  -12.70983 -12.70956 -12.70826 -12.68278 -12.68265
 Alpha  occ. eigenvalues --  -12.68166  -6.62061  -4.78651  -4.77990  -4.77779
 Alpha  occ. eigenvalues --   -1.99337  -1.94877  -1.92363  -1.27632  -1.26877
 Alpha  occ. eigenvalues --   -1.26573  -1.26491  -1.23358  -1.22531  -1.22183
 Alpha  occ. eigenvalues --   -1.20403  -1.19943  -1.18788  -1.12751  -0.98973
 Alpha  occ. eigenvalues --   -0.87628  -0.84836  -0.61923  -0.56994  -0.55322
 Alpha  occ. eigenvalues --   -0.54044  -0.50303  -0.48097  -0.45252  -0.43823
 Alpha  occ. eigenvalues --   -0.42212  -0.41186  -0.35208  -0.32898  -0.31562
 Alpha  occ. eigenvalues --   -0.30337  -0.27180
 Alpha virt. eigenvalues --   -0.23182  -0.22013  -0.18010  -0.16060  -0.14460
 Alpha virt. eigenvalues --   -0.14113  -0.12627  -0.10644  -0.09690  -0.09077
 Alpha virt. eigenvalues --   -0.08176  -0.07168  -0.06594  -0.06154  -0.05620

 Mulliken atomic charges:
              1
     1  O   -0.873741
     2  P   -0.787685
     3  Ca   1.315565
     4  Ca   1.235120
     5  O   -0.148502
     6  O   -0.155020
     7  O   -0.506080
     8  O   -0.493085
     9  Ca   1.413428
 Sum of Mulliken charges=   1.00000

 Dipole moment (field-independent basis, Debye):
    X=   -14.8548    Y=    -0.4044    Z=    -2.3250  Tot=    15.0410
 Quadrupole moment (field-independent basis, Debye-Ang):
   XX=   -39.4473   YY=   -45.0254   ZZ=   -85.0652
   XY=    -0.2266   XZ=    22.8007   YZ=     3.9046

 Normal termination of Gaussian 03 at Fri Jun 12 17:51:58 2015.
