 Gaussian 03, Revision E.01,
 Gaussian 03:  EM64T-G03RevE.01 11-Sep-2007

 ----------------------------------------------------
 # b3lyp/6-31+G(d,p) int=ultrafine pop=(ReadRadii,MK)
 ----------------------------------------------------

 ---------------------------------------
 mol_17.25.40.pdbcc_plusQ.z58345.zip.xyz
 ---------------------------------------
 Symbolic Z-matrix:
 Charge =  1 Multiplicity = 1

                         Standard orientation:
 ---------------------------------------------------------------------
 Center     Atomic     Atomic              Coordinates (Angstroms)
 Number     Number      Type              X           Y           Z
 ---------------------------------------------------------------------
    1          8             0       -1.237624    1.285173   -0.440711
    2          8             0       -1.237612   -1.285197   -0.440691
    3          8             0        0.608362    0.000022    1.521279
    4          8             0        2.068232    0.000018    1.103219
    5         20             0        1.054090   -1.671826   -0.138351
    6          8             0        0.590002   -0.000008   -1.656241
    7         15             0       -1.065348   -0.000016   -1.530641
    8         20             0       -1.625688    0.000001    1.389969
    9         20             0        1.054065    1.671834   -0.138381
 ---------------------------------------------------------------------

 SCF Done:  E(RB+HF-LYP) =  -2750.24881792     A.U. after    7 cycles

 The electronic state is 1-A.
 Alpha  occ. eigenvalues -- -145.52375-145.50180-145.50174 -77.25160 -19.25914
 Alpha  occ. eigenvalues --  -19.25462 -19.21787 -19.21787 -19.21337 -15.59134
 Alpha  occ. eigenvalues --  -15.56978 -15.56974 -12.72323 -12.72318 -12.72292
 Alpha  occ. eigenvalues --  -12.70185 -12.70184 -12.70176 -12.70176 -12.70097
 Alpha  occ. eigenvalues --  -12.70097  -6.70247  -4.86601  -4.86593  -4.86033
 Alpha  occ. eigenvalues --   -1.96314  -1.94230  -1.94164  -1.24342  -1.23871
 Alpha  occ. eigenvalues --   -1.23773  -1.22782  -1.22077  -1.21717  -1.21641
 Alpha  occ. eigenvalues --   -1.21523  -1.21224  -1.10034  -1.07326  -1.00854
 Alpha  occ. eigenvalues --   -1.00733  -0.89079  -0.63098  -0.51346  -0.51080
 Alpha  occ. eigenvalues --   -0.50980  -0.49236  -0.48453  -0.46047  -0.43792
 Alpha  occ. eigenvalues --   -0.43560  -0.38837  -0.38644  -0.38613  -0.35303
 Alpha  occ. eigenvalues --   -0.33992  -0.31705
 Alpha virt. eigenvalues --   -0.20297  -0.18388  -0.17632  -0.12782  -0.12602
 Alpha virt. eigenvalues --   -0.10902  -0.09918  -0.09097  -0.08254  -0.07949
 Alpha virt. eigenvalues --   -0.07349  -0.06562  -0.06018  -0.05817  -0.04928

 Mulliken atomic charges:
              1
     1  O   -1.043805
     2  O   -1.043807
     3  O   -0.725455
     4  O   -0.643590
     5  Ca   1.462696
     6  O   -1.034855
     7  P    1.083260
     8  Ca   1.482863
     9  Ca   1.462693
 Sum of Mulliken charges=   1.00000

 Dipole moment (field-independent basis, Debye):
    X=     0.9438    Y=     0.0000    Z=     6.2013  Tot=     6.2727
 Quadrupole moment (field-independent basis, Debye-Ang):
   XX=   -63.7404   YY=   -44.2160   ZZ=   -80.5197
   XY=    -0.0005   XZ=   -28.3134   YZ=    -0.0005

 Normal termination of Gaussian 03 at Fri Jun 12 17:57:57 2015.
