 Gaussian 03, Revision E.01,
 Gaussian 03:  EM64T-G03RevE.01 11-Sep-2007

 ----------------------------------------------------
 # b3lyp/6-31+G(d,p) int=ultrafine pop=(ReadRadii,MK)
 ----------------------------------------------------

 --------------------------------------
 mol_17.23.45.pdbc_plusQ.z58246.zip.xyz
 --------------------------------------
 Symbolic Z-matrix:
 Charge =  1 Multiplicity = 1

                         Standard orientation:
 ---------------------------------------------------------------------
 Center     Atomic     Atomic              Coordinates (Angstroms)
 Number     Number      Type              X           Y           Z
 ---------------------------------------------------------------------
    1          8             0       -2.614090   -0.140179    0.000000
    2         15             0       -1.305721   -0.960730    0.000000
    3          8             0       -1.309491   -2.499730    0.000000
    4         20             0        1.148789   -2.644750    0.000000
    5          8             0        2.517639   -1.023141    0.000000
    6         20             0        2.200610    1.119549    0.000000
    7          8             0        0.000000    1.195970    0.000000
    8          8             0        0.308370    2.719650    0.000000
    9         20             0       -1.931080    2.144720    0.000000
 ---------------------------------------------------------------------

 SCF Done:  E(RB+HF-LYP) =  -2750.13357193     A.U. after   10 cycles

 The electronic state is 1-A'.
 Alpha  occ. eigenvalues -- -145.53134-145.49944-145.45495 -77.27354 -19.26248
 Alpha  occ. eigenvalues --  -19.26052 -19.23334 -19.23103 -19.11532 -15.59917
 Alpha  occ. eigenvalues --  -15.56816 -15.52382 -12.73189 -12.73079 -12.73024
 Alpha  occ. eigenvalues --  -12.70067 -12.70036 -12.69859 -12.65655 -12.65563
 Alpha  occ. eigenvalues --  -12.65432  -6.72952  -4.89343  -4.89166  -4.88798
 Alpha  occ. eigenvalues --   -1.96942  -1.93923  -1.89677  -1.24777  -1.24744
 Alpha  occ. eigenvalues --   -1.24028  -1.21742  -1.21680  -1.20585  -1.17708
 Alpha  occ. eigenvalues --   -1.17668  -1.16590  -1.11547  -1.07226  -1.06392
 Alpha  occ. eigenvalues --   -0.86978  -0.85663  -0.64349  -0.53131  -0.52569
 Alpha  occ. eigenvalues --   -0.50284  -0.46708  -0.46430  -0.44220  -0.43750
 Alpha  occ. eigenvalues --   -0.43576  -0.35544  -0.34737  -0.31903  -0.31207
 Alpha  occ. eigenvalues --   -0.29798  -0.29514
 Alpha virt. eigenvalues --   -0.19997  -0.17691  -0.17323  -0.15030  -0.11890
 Alpha virt. eigenvalues --   -0.10334  -0.10271  -0.09991  -0.09107  -0.08532
 Alpha virt. eigenvalues --   -0.08202  -0.06879  -0.06465  -0.05838  -0.05329

 Mulliken atomic charges:
              1
     1  O   -0.751259
     2  P    0.576617
     3  O   -0.581363
     4  Ca   1.411367
     5  O   -1.220899
     6  Ca   1.422326
     7  O   -0.638455
     8  O   -0.751932
     9  Ca   1.533598
 Sum of Mulliken charges=   1.00000

 Dipole moment (field-independent basis, Debye):
    X=    -0.7653    Y=     3.5867    Z=     0.0000  Tot=     3.6675
 Quadrupole moment (field-independent basis, Debye-Ang):
   XX=   -60.1347   YY=   -29.5616   ZZ=   -73.8951
   XY=   -27.7837   XZ=     0.0000   YZ=     0.0000

 Normal termination of Gaussian 03 at Fri Jun 12 17:53:40 2015.
