 Gaussian 03, Revision E.01,
 Gaussian 03:  EM64T-G03RevE.01 11-Sep-2007

 ----------------------------------------------------
 # b3lyp/6-31+G(d,p) int=ultrafine pop=(ReadRadii,MK)
 ----------------------------------------------------

 --------------------------------------
 mol_17.26.4.pdbcc_plusQ.z58461.zip.xyz
 --------------------------------------
 Symbolic Z-matrix:
 Charge =  1 Multiplicity = 1

                         Standard orientation:
 ---------------------------------------------------------------------
 Center     Atomic     Atomic              Coordinates (Angstroms)
 Number     Number      Type              X           Y           Z
 ---------------------------------------------------------------------
    1          8             0        1.142809   -1.720178   -0.330891
    2          8             0        1.089069   -2.007398    1.194119
    3         15             0        0.167958   -0.699159    0.606889
    4          8             0       -1.277082   -0.966740    1.078629
    5         20             0       -2.455623   -0.542391   -0.840831
    6          8             0        1.012226    0.532502    1.147169
    7         20             0       -0.481995    2.259461    0.552219
    8         20             0        2.135187    0.384393   -1.055251
    9          8             0       -0.275863    0.219081   -0.867281
 ---------------------------------------------------------------------

 SCF Done:  E(RB+HF-LYP) =  -2750.08666135     A.U. after   11 cycles

 The electronic state is 1-A.
 Alpha  occ. eigenvalues -- -145.55561-145.54213-145.53000 -77.36377 -19.32412
 Alpha  occ. eigenvalues --  -19.30064 -19.24772 -19.24413 -19.24134 -15.62317
 Alpha  occ. eigenvalues --  -15.61068 -15.59881 -12.75515 -12.75505 -12.75472
 Alpha  occ. eigenvalues --  -12.74296 -12.74226 -12.74188 -12.73099 -12.73048
 Alpha  occ. eigenvalues --  -12.72987  -6.80272  -4.96785  -4.96613  -4.96554
 Alpha  occ. eigenvalues --   -1.99233  -1.98114  -1.96929  -1.27291  -1.26666
 Alpha  occ. eigenvalues --   -1.26493  -1.25734  -1.25640  -1.25373  -1.24483
 Alpha  occ. eigenvalues --   -1.24284  -1.24193  -1.22642  -1.11338  -1.06972
 Alpha  occ. eigenvalues --   -1.03046  -0.96298  -0.68348  -0.58136  -0.57300
 Alpha  occ. eigenvalues --   -0.55350  -0.55253  -0.50446  -0.48964  -0.47113
 Alpha  occ. eigenvalues --   -0.45070  -0.42698  -0.42018  -0.40824  -0.39470
 Alpha  occ. eigenvalues --   -0.37465  -0.27189
 Alpha virt. eigenvalues --   -0.22887  -0.21082  -0.16447  -0.15694  -0.14839
 Alpha virt. eigenvalues --   -0.13688  -0.12665  -0.12081  -0.11298  -0.10515
 Alpha virt. eigenvalues --   -0.08765  -0.08056  -0.07383  -0.05908  -0.05716

 Mulliken atomic charges:
              1
     1  O   -0.534476
     2  O   -0.246235
     3  P    1.394472
     4  O   -0.732212
     5  Ca   1.121963
     6  O   -0.862740
     7  Ca   0.754108
     8  Ca   1.158248
     9  O   -1.053127
 Sum of Mulliken charges=   1.00000

 Dipole moment (field-independent basis, Debye):
    X=    -1.8631    Y=     5.7024    Z=    -7.4222  Tot=     9.5435
 Quadrupole moment (field-independent basis, Debye-Ang):
   XX=   -41.4758   YY=   -79.0783   ZZ=   -82.3380
   XY=    11.0192   XZ=    -4.5079   YZ=    13.6733

 Normal termination of Gaussian 03 at Fri Jun 12 18:02:19 2015.
