 Gaussian 03, Revision E.01,
 Gaussian 03:  EM64T-G03RevE.01 11-Sep-2007

 ----------------------------------------------------
 # b3lyp/6-31+G(d,p) int=ultrafine pop=(ReadRadii,MK)
 ----------------------------------------------------

 -----------------------------------------
 mol_16.4.47.pdbc_plusQ.out.z51597.zip.xyz
 -----------------------------------------
 Symbolic Z-matrix:
 Charge =  1 Multiplicity = 1

                         Standard orientation:
 ---------------------------------------------------------------------
 Center     Atomic     Atomic              Coordinates (Angstroms)
 Number     Number      Type              X           Y           Z
 ---------------------------------------------------------------------
    1          8             0        1.713228    0.005163   -0.785620
    2          8             0        1.712538    0.005013    0.786750
    3         20             0        0.767342   -1.856119   -0.000310
    4         15             0       -2.319552   -0.006805    0.000470
    5          8             0       -1.437610   -1.277193   -0.000160
    6         20             0        0.755634    1.860171   -0.000100
    7          8             0       -1.446435    1.269647   -0.000830
 ---------------------------------------------------------------------

 SCF Done:  E(RB+HF-LYP) =  -1997.33372451     A.U. after    6 cycles

 The electronic state is 1-A.
 Alpha  occ. eigenvalues -- -145.53242-145.53239 -77.30161 -19.27964 -19.27939
 Alpha  occ. eigenvalues --  -19.25601 -19.25573 -15.60089 -15.60086 -12.73304
 Alpha  occ. eigenvalues --  -12.73301 -12.73286 -12.73283 -12.73204 -12.73200
 Alpha  occ. eigenvalues --   -6.75643  -4.92083  -4.91867  -4.91423  -1.97232
 Alpha  occ. eigenvalues --   -1.97205  -1.25762  -1.24802  -1.24789  -1.24722
 Alpha  occ. eigenvalues --   -1.24721  -1.24299  -1.13927  -1.08557  -1.08250
 Alpha  occ. eigenvalues --   -0.89520  -0.67706  -0.57284  -0.52825  -0.52603
 Alpha  occ. eigenvalues --   -0.48994  -0.47945  -0.46120  -0.45765  -0.43903
 Alpha  occ. eigenvalues --   -0.40700  -0.37191  -0.34166
 Alpha virt. eigenvalues --   -0.20455  -0.19852  -0.19630  -0.14480  -0.11366
 Alpha virt. eigenvalues --   -0.11279  -0.10319  -0.09665  -0.09042  -0.07374
 Alpha virt. eigenvalues --   -0.07215  -0.06431  -0.05961  -0.05215  -0.04857

 Mulliken atomic charges:
              1
     1  O   -0.668807
     2  O   -0.668287
     3  Ca   1.543989
     4  P    0.668593
     5  O   -0.709551
     6  Ca   1.543927
     7  O   -0.709863
 Sum of Mulliken charges=   1.00000

 Dipole moment (field-independent basis, Debye):
    X=     3.1414    Y=     0.0012    Z=    -0.0010  Tot=     3.1414
 Quadrupole moment (field-independent basis, Debye-Ang):
   XX=   -66.4974   YY=    -8.8825   ZZ=   -58.2521
   XY=    -0.1736   XZ=    -0.0052   YZ=     0.0068

 Normal termination of Gaussian 03 at Fri Jun 12 17:48:44 2015.
