 Gaussian 03, Revision E.01,
 Gaussian 03:  EM64T-G03RevE.01 11-Sep-2007

 ----------------------------------------------------
 # b3lyp/6-31+G(d,p) int=ultrafine pop=(ReadRadii,MK)
 ----------------------------------------------------

 ---------------------------------------
 mol_17.23.26.pdbcc_plusQ.z58227.zip.xyz
 ---------------------------------------
 Symbolic Z-matrix:
 Charge =  1 Multiplicity = 1

                         Standard orientation:
 ---------------------------------------------------------------------
 Center     Atomic     Atomic              Coordinates (Angstroms)
 Number     Number      Type              X           Y           Z
 ---------------------------------------------------------------------
    1         20             0       -1.638807    1.694255   -0.113460
    2          8             0       -2.643820   -0.000153   -0.933750
    3         20             0       -1.637443   -1.694325   -0.114390
    4          8             0        0.707397   -1.253820   -0.291090
    5         15             0        0.680620   -0.000450    0.734690
    6          8             0       -0.673710   -0.000917    1.471190
    7          8             0        2.072350   -0.001312    1.396810
    8         20             0        2.697910    0.001056   -0.864710
    9          8             0        0.707472    1.254580   -0.289310
 ---------------------------------------------------------------------

 SCF Done:  E(RB+HF-LYP) =  -2750.29808225     A.U. after   10 cycles

 The electronic state is 1-A.
 Alpha  occ. eigenvalues -- -145.57953-145.47238-145.47226 -77.31605 -19.23828
 Alpha  occ. eigenvalues --  -19.22928 -19.22926 -19.21462 -19.10169 -15.64605
 Alpha  occ. eigenvalues --  -15.54069 -15.54057 -12.77806 -12.77803 -12.77793
 Alpha  occ. eigenvalues --  -12.67290 -12.67279 -12.67278 -12.67267 -12.67152
 Alpha  occ. eigenvalues --  -12.67140  -6.76218  -4.92591  -4.92579  -4.92466
 Alpha  occ. eigenvalues --   -2.01384  -1.91287  -1.91233  -1.29240  -1.28564
 Alpha  occ. eigenvalues --   -1.28537  -1.19735  -1.18943  -1.18886  -1.18832
 Alpha  occ. eigenvalues --   -1.18549  -1.17842  -1.13228  -1.05732  -1.03318
 Alpha  occ. eigenvalues --   -1.03279  -0.84394  -0.62853  -0.54548  -0.53754
 Alpha  occ. eigenvalues --   -0.52826  -0.46977  -0.46091  -0.44542  -0.42827
 Alpha  occ. eigenvalues --   -0.42136  -0.39665  -0.39022  -0.36425  -0.30214
 Alpha  occ. eigenvalues --   -0.28474  -0.28398
 Alpha virt. eigenvalues --   -0.23008  -0.17081  -0.15715  -0.13319  -0.13267
 Alpha virt. eigenvalues --   -0.10168  -0.09206  -0.08565  -0.07814  -0.07318
 Alpha virt. eigenvalues --   -0.07160  -0.05943  -0.05553  -0.05159  -0.04889

 Mulliken atomic charges:
              1
     1  Ca   1.387000
     2  O   -1.161631
     3  Ca   1.386885
     4  O   -1.054915
     5  P    1.803906
     6  O   -0.924801
     7  O   -0.842477
     8  Ca   1.460907
     9  O   -1.054874
 Sum of Mulliken charges=   1.00000

 Dipole moment (field-independent basis, Debye):
    X=     7.1151    Y=     0.0102    Z=    -5.8410  Tot=     9.2055
 Quadrupole moment (field-independent basis, Debye-Ang):
   XX=   -40.1357   YY=   -41.8659   ZZ=   -83.9359
   XY=     0.0074   XZ=   -35.4562   YZ=     0.0046

 Normal termination of Gaussian 03 at Fri Jun 12 17:53:06 2015.
