 Gaussian 03, Revision E.01,
 Gaussian 03:  EM64T-G03RevE.01 11-Sep-2007

 ----------------------------------------------------
 # b3lyp/6-31+G(d,p) int=ultrafine pop=(ReadRadii,MK)
 ----------------------------------------------------

 ----------------------------------------
 mol_16.5.8.pdbc_plusQ.out.z51633.zip.xyz
 ----------------------------------------
 Symbolic Z-matrix:
 Charge =  1 Multiplicity = 1

                         Standard orientation:
 ---------------------------------------------------------------------
 Center     Atomic     Atomic              Coordinates (Angstroms)
 Number     Number      Type              X           Y           Z
 ---------------------------------------------------------------------
    1          8             0       -1.446287    1.270626   -0.001188
    2          8             0       -1.439033   -1.276374   -0.000048
    3         15             0       -2.320020   -0.005428    0.000362
    4         20             0        0.765886   -1.855944   -0.000068
    5          8             0        1.713870    0.003928    0.786352
    6          8             0        1.714810    0.003918   -0.786228
    7         20             0        0.756784    1.859176    0.000242
 ---------------------------------------------------------------------

 SCF Done:  E(RB+HF-LYP) =  -1997.33372435     A.U. after    6 cycles

 The electronic state is 1-A.
 Alpha  occ. eigenvalues -- -145.53249-145.53248 -77.30168 -19.27962 -19.27960
 Alpha  occ. eigenvalues --  -19.25614 -19.25574 -15.60096 -15.60095 -12.73311
 Alpha  occ. eigenvalues --  -12.73310 -12.73293 -12.73292 -12.73211 -12.73208
 Alpha  occ. eigenvalues --   -6.75649  -4.92089  -4.91874  -4.91429  -1.97239
 Alpha  occ. eigenvalues --   -1.97213  -1.25768  -1.24809  -1.24796  -1.24729
 Alpha  occ. eigenvalues --   -1.24728  -1.24305  -1.13937  -1.08568  -1.08250
 Alpha  occ. eigenvalues --   -0.89528  -0.67713  -0.57292  -0.52834  -0.52612
 Alpha  occ. eigenvalues --   -0.48995  -0.47945  -0.46123  -0.45774  -0.43913
 Alpha  occ. eigenvalues --   -0.40706  -0.37194  -0.34175
 Alpha virt. eigenvalues --   -0.20457  -0.19857  -0.19631  -0.14487  -0.11368
 Alpha virt. eigenvalues --   -0.11282  -0.10318  -0.09669  -0.09051  -0.07375
 Alpha virt. eigenvalues --   -0.07217  -0.06432  -0.05962  -0.05216  -0.04858

 Mulliken atomic charges:
              1
     1  O   -0.709768
     2  O   -0.709698
     3  P    0.668703
     4  Ca   1.543904
     5  O   -0.668978
     6  O   -0.668068
     7  Ca   1.543906
 Sum of Mulliken charges=   1.00000

 Dipole moment (field-independent basis, Debye):
    X=     3.1325    Y=     0.0030    Z=     0.0007  Tot=     3.1325
 Quadrupole moment (field-independent basis, Debye-Ang):
   XX=   -66.5320   YY=    -8.9162   ZZ=   -58.2533
   XY=    -0.1337   XZ=    -0.0058   YZ=     0.0103

 Normal termination of Gaussian 03 at Fri Jun 12 17:49:33 2015.
