 Gaussian 03, Revision E.01,
 Gaussian 03:  EM64T-G03RevE.01 11-Sep-2007

 ----------------------------------------------------
 # b3lyp/6-31+G(d,p) int=ultrafine pop=(ReadRadii,MK)
 ----------------------------------------------------

 -----------------------------------------
 mol_17.25.16.pdbcccc_plusQ.z58323.zip.xyz
 -----------------------------------------
 Symbolic Z-matrix:
 Charge =  1 Multiplicity = 1

                         Standard orientation:
 ---------------------------------------------------------------------
 Center     Atomic     Atomic              Coordinates (Angstroms)
 Number     Number      Type              X           Y           Z
 ---------------------------------------------------------------------
    1          8             0        3.250639    0.994691   -0.000531
    2          8             0        0.780309    1.636091    0.000329
    3         15             0        2.222509    2.157631    0.000119
    4         20             0        2.876019   -1.252939   -0.000221
    5          8             0        0.860249   -1.701939    0.786219
    6          8             0        0.859809   -1.703069   -0.785001
    7         20             0       -0.710511   -0.219769    0.000109
    8          8             0       -2.913751    0.040982   -0.001661
    9         20             0       -4.967291    0.147782    0.000279
 ---------------------------------------------------------------------

 SCF Done:  E(RB+HF-LYP) =  -2750.16080511     A.U. after   10 cycles

 The electronic state is 1-A.
 Alpha  occ. eigenvalues -- -145.56262-145.47358-145.39525 -77.24884 -19.23070
 Alpha  occ. eigenvalues --  -19.22640 -19.19094 -19.19088 -19.14739 -15.63033
 Alpha  occ. eigenvalues --  -15.54242 -15.46439 -12.76248 -12.76248 -12.76118
 Alpha  occ. eigenvalues --  -12.67455 -12.67452 -12.67328 -12.59698 -12.59642
 Alpha  occ. eigenvalues --  -12.59497  -6.70446  -4.86885  -4.86663  -4.86235
 Alpha  occ. eigenvalues --   -1.99941  -1.91503  -1.83901  -1.27460  -1.27453
 Alpha  occ. eigenvalues --   -1.26567  -1.19499  -1.19089  -1.19077  -1.12082
 Alpha  occ. eigenvalues --   -1.11923  -1.11805  -1.08676  -1.03432  -1.01351
 Alpha  occ. eigenvalues --   -0.88573  -0.82873  -0.62291  -0.51746  -0.47809
 Alpha  occ. eigenvalues --   -0.47584  -0.42517  -0.41169  -0.40558  -0.39787
 Alpha  occ. eigenvalues --   -0.38743  -0.35591  -0.34925  -0.32699  -0.32602
 Alpha  occ. eigenvalues --   -0.30310  -0.27656
 Alpha virt. eigenvalues --   -0.24062  -0.15768  -0.14961  -0.14250  -0.14213
 Alpha virt. eigenvalues --   -0.12711  -0.09489  -0.08396  -0.07232  -0.06833
 Alpha virt. eigenvalues --   -0.06029  -0.05412  -0.05155  -0.05020  -0.04849

 Mulliken atomic charges:
              1
     1  O   -0.714021
     2  O   -0.680062
     3  P    0.604852
     4  Ca   1.384110
     5  O   -0.675283
     6  O   -0.675408
     7  Ca   1.446674
     8  O   -1.151945
     9  Ca   1.461084
 Sum of Mulliken charges=   1.00000

 Dipole moment (field-independent basis, Debye):
    X=   -14.2173    Y=    -1.5177    Z=     0.0071  Tot=    14.2981
 Quadrupole moment (field-independent basis, Debye-Ang):
   XX=    90.0945   YY=   -84.3340   ZZ=   -77.8356
   XY=   -24.8570   XZ=    -0.0421   YZ=     0.0064

 Normal termination of Gaussian 03 at Fri Jun 12 17:57:33 2015.
