 Gaussian 03, Revision E.01,
 Gaussian 03:  EM64T-G03RevE.01 11-Sep-2007

 ----------------------------------------------------
 # b3lyp/6-31+G(d,p) int=ultrafine pop=(ReadRadii,MK)
 ----------------------------------------------------

 ---------------------------------------
 mol_17.22.49.pdbcc_plusQ.z58199.zip.xyz
 ---------------------------------------
 Symbolic Z-matrix:
 Charge =  1 Multiplicity = 1

                         Standard orientation:
 ---------------------------------------------------------------------
 Center     Atomic     Atomic              Coordinates (Angstroms)
 Number     Number      Type              X           Y           Z
 ---------------------------------------------------------------------
    1         20             0        2.943240   -0.650147   -0.160139
    2          8             0        0.896407   -1.719761   -0.677449
    3         15             0       -0.003501   -0.855959    0.200581
    4          8             0       -1.242883   -1.457326    0.866911
    5          8             0       -0.727728    0.259343   -0.939179
    6          8             0       -1.476775    1.352255   -0.178499
    7          8             0        0.917301    0.095309    1.036401
    8         20             0        0.683637    2.251619    0.078521
    9         20             0       -2.970780   -0.371431   -0.112089
 ---------------------------------------------------------------------

 SCF Done:  E(RB+HF-LYP) =  -2750.16900889     A.U. after   14 cycles

 The electronic state is 1-A.
 Alpha  occ. eigenvalues -- -145.55397-145.51928-145.51329 -77.34440 -19.34001
 Alpha  occ. eigenvalues --  -19.30104 -19.25586 -19.24949 -19.24257 -15.62212
 Alpha  occ. eigenvalues --  -15.58838 -15.58226 -12.75446 -12.75363 -12.75357
 Alpha  occ. eigenvalues --  -12.72048 -12.72010 -12.71945 -12.71447 -12.71386
 Alpha  occ. eigenvalues --  -12.71338  -6.78924  -4.95450  -4.95190  -4.95133
 Alpha  occ. eigenvalues --   -1.99194  -1.95852  -1.95310  -1.27402  -1.26740
 Alpha  occ. eigenvalues --   -1.26493  -1.23750  -1.23314  -1.23161  -1.23097
 Alpha  occ. eigenvalues --   -1.22754  -1.22655  -1.18922  -1.13389  -1.07789
 Alpha  occ. eigenvalues --   -1.06516  -0.97040  -0.66826  -0.59795  -0.57392
 Alpha  occ. eigenvalues --   -0.56796  -0.53845  -0.52815  -0.47734  -0.46976
 Alpha  occ. eigenvalues --   -0.45287  -0.45021  -0.42670  -0.40939  -0.40351
 Alpha  occ. eigenvalues --   -0.40267  -0.25222
 Alpha virt. eigenvalues --   -0.22441  -0.19370  -0.16268  -0.13614  -0.13169
 Alpha virt. eigenvalues --   -0.12651  -0.12037  -0.10984  -0.10545  -0.09318
 Alpha virt. eigenvalues --   -0.08506  -0.07236  -0.06719  -0.06238  -0.05338

 Mulliken atomic charges:
              1
     1  Ca   0.742927
     2  O   -0.794806
     3  P    1.782294
     4  O   -0.835431
     5  O   -0.541533
     6  O   -0.638083
     7  O   -0.915976
     8  Ca   0.937628
     9  Ca   1.262980
 Sum of Mulliken charges=   1.00000

 Dipole moment (field-independent basis, Debye):
    X=    -4.7497    Y=     2.5813    Z=    -0.4991  Tot=     5.4288
 Quadrupole moment (field-independent basis, Debye-Ang):
   XX=   -17.6424   YY=   -75.5715   ZZ=   -91.6393
   XY=    -3.1513   XZ=     3.1717   YZ=     3.9799

 Normal termination of Gaussian 03 at Fri Jun 12 17:52:12 2015.
