 Gaussian 03, Revision E.01,
 Gaussian 03:  EM64T-G03RevE.01 11-Sep-2007

 ----------------------------------------------------
 # b3lyp/6-31+G(d,p) int=ultrafine pop=(ReadRadii,MK)
 ----------------------------------------------------

 -----------------------------------------
 mol_16.5.13.pdbc_plusQ.out.z51619.zip.xyz
 -----------------------------------------
 Symbolic Z-matrix:
 Charge =  1 Multiplicity = 1

                         Standard orientation:
 ---------------------------------------------------------------------
 Center     Atomic     Atomic              Coordinates (Angstroms)
 Number     Number      Type              X           Y           Z
 ---------------------------------------------------------------------
    1          8             0       -1.164551    0.220646    1.202772
    2          8             0       -2.036582    0.421041    0.002432
    3          8             0       -1.168561    0.221165   -1.201418
    4          8             0        1.489826   -1.193242   -0.000778
    5         15             0        2.505170    0.003023    0.000392
    6         20             0       -0.735212   -1.685942   -0.000588
    7         20             0        0.008282    1.815831   -0.000908
 ---------------------------------------------------------------------

 SCF Done:  E(RB+HF-LYP) =  -1997.13669012     A.U. after    9 cycles

 The electronic state is 1-A.
 Alpha  occ. eigenvalues -- -145.55223-145.54324 -77.26594 -19.38796 -19.29874
 Alpha  occ. eigenvalues --  -19.29581 -19.29581 -15.62001 -15.61192 -12.75199
 Alpha  occ. eigenvalues --  -12.75189 -12.75160 -12.74396 -12.74376 -12.74314
 Alpha  occ. eigenvalues --   -6.72852  -4.89556  -4.89018  -4.88253  -1.99049
 Alpha  occ. eigenvalues --   -1.98282  -1.29123  -1.26544  -1.26470  -1.25891
 Alpha  occ. eigenvalues --   -1.25682  -1.25587  -1.21268  -1.11802  -1.05510
 Alpha  occ. eigenvalues --   -0.90129  -0.68265  -0.59410  -0.57531  -0.57083
 Alpha  occ. eigenvalues --   -0.52160  -0.50432  -0.49932  -0.45774  -0.43178
 Alpha  occ. eigenvalues --   -0.41412  -0.37829  -0.31029
 Alpha virt. eigenvalues --   -0.25072  -0.21198  -0.20227  -0.15663  -0.13928
 Alpha virt. eigenvalues --   -0.12844  -0.12012  -0.11382  -0.10017  -0.09141
 Alpha virt. eigenvalues --   -0.08036  -0.07149  -0.06854  -0.05851  -0.05616

 Mulliken atomic charges:
              1
     1  O   -0.600863
     2  O   -0.101218
     3  O   -0.601008
     4  O   -0.566482
     5  P    0.123854
     6  Ca   1.520985
     7  Ca   1.224734
 Sum of Mulliken charges=   1.00000

 Dipole moment (field-independent basis, Debye):
    X=    -1.2173    Y=    -0.2413    Z=    -0.0112  Tot=     1.2410
 Quadrupole moment (field-independent basis, Debye-Ang):
   XX=   -67.8045   YY=   -15.9747   ZZ=   -63.7517
   XY=    14.4233   XZ=    -0.0039   YZ=    -0.0034

 Normal termination of Gaussian 03 at Fri Jun 12 17:49:33 2015.
