 Gaussian 03, Revision E.01,
 Gaussian 03:  EM64T-G03RevE.01 11-Sep-2007

 ----------------------------------------------------
 # b3lyp/6-31+G(d,p) int=ultrafine pop=(ReadRadii,MK)
 ----------------------------------------------------

 -------------------------------------
 mol_17.23.32.pdb_plusQ.z58233.zip.xyz
 -------------------------------------
 Symbolic Z-matrix:
 Charge =  1 Multiplicity = 1

                         Standard orientation:
 ---------------------------------------------------------------------
 Center     Atomic     Atomic              Coordinates (Angstroms)
 Number     Number      Type              X           Y           Z
 ---------------------------------------------------------------------
    1          8             0        1.341370    2.079880    0.000000
    2         15             0        0.000000    1.341250    0.000000
    3          8             0       -1.184040    2.431819    0.000000
    4          8             0       -2.432000    1.680669    0.000000
    5          8             0       -1.619819   -2.034911    0.000000
    6         20             0       -3.055000   -0.481771    0.000000
    7         20             0        0.497931   -2.447760    0.000000
    8          8             0        2.241111   -1.141450    0.000000
    9         20             0        3.218420    0.717191    0.000000
 ---------------------------------------------------------------------

 SCF Done:  E(RB+HF-LYP) =  -2750.06878618     A.U. after   10 cycles

 The electronic state is 1-A'.
 Alpha  occ. eigenvalues -- -145.51760-145.48284-145.43756 -77.30415 -19.34879
 Alpha  occ. eigenvalues --  -19.28950 -19.25781 -19.13845 -19.12138 -15.58605
 Alpha  occ. eigenvalues --  -15.55175 -15.50779 -12.71852 -12.71781 -12.71687
 Alpha  occ. eigenvalues --  -12.68421 -12.68373 -12.68231 -12.64040 -12.64005
 Alpha  occ. eigenvalues --  -12.63760  -6.76159  -4.92485  -4.92402  -4.91962
 Alpha  occ. eigenvalues --   -1.95745  -1.92403  -1.88238  -1.23520  -1.23450
 Alpha  occ. eigenvalues --   -1.22597  -1.21576  -1.20225  -1.19774  -1.19116
 Alpha  occ. eigenvalues --   -1.16296  -1.16087  -1.15003  -1.12342  -0.94593
 Alpha  occ. eigenvalues --   -0.87985  -0.86086  -0.68948  -0.58246  -0.56739
 Alpha  occ. eigenvalues --   -0.54658  -0.49849  -0.48651  -0.42093  -0.37384
 Alpha  occ. eigenvalues --   -0.35448  -0.34745  -0.32151  -0.32095  -0.31831
 Alpha  occ. eigenvalues --   -0.30414  -0.30183
 Alpha virt. eigenvalues --   -0.21145  -0.20131  -0.17514  -0.14600  -0.11988
 Alpha virt. eigenvalues --   -0.11526  -0.10070  -0.09602  -0.09596  -0.08566
 Alpha virt. eigenvalues --   -0.08096  -0.07466  -0.06506  -0.05821  -0.05508

 Mulliken atomic charges:
              1
     1  O   -0.705434
     2  P    0.685991
     3  O   -0.206180
     4  O   -0.544889
     5  O   -1.252581
     6  Ca   1.426054
     7  Ca   1.388738
     8  O   -1.249974
     9  Ca   1.458274
 Sum of Mulliken charges=   1.00000

 Dipole moment (field-independent basis, Debye):
    X=     4.9720    Y=    -2.4750    Z=     0.0000  Tot=     5.5539
 Quadrupole moment (field-independent basis, Debye-Ang):
   XX=     1.6981   YY=   -77.6812   ZZ=   -74.4128
   XY=    19.8602   XZ=     0.0000   YZ=     0.0000

 Normal termination of Gaussian 03 at Fri Jun 12 17:52:35 2015.
