 Gaussian 03, Revision E.01,
 Gaussian 03:  EM64T-G03RevE.01 11-Sep-2007

 ----------------------------------------------------
 # b3lyp/6-31+G(d,p) int=ultrafine pop=(ReadRadii,MK)
 ----------------------------------------------------

 ----------------------------------------
 mol_17.23.58.pdbccc_plusQ.z58258.zip.xyz
 ----------------------------------------
 Symbolic Z-matrix:
 Charge =  1 Multiplicity = 1

                         Standard orientation:
 ---------------------------------------------------------------------
 Center     Atomic     Atomic              Coordinates (Angstroms)
 Number     Number      Type              X           Y           Z
 ---------------------------------------------------------------------
    1          8             0       -0.730610   -2.108631   -0.692700
    2          8             0       -0.672640   -1.908331    0.863120
    3          8             0       -1.807021    1.321749   -0.863440
    4          8             0       -1.964811    1.420789    0.697810
    5         20             0       -2.388510   -0.709291   -0.010570
    6         15             0        3.295590    0.478760   -0.022570
    7          8             0        1.703229    0.733130    0.025930
    8         20             0       -0.046261    2.289409    0.038310
    9         20             0        1.351820   -1.722671   -0.023100
 ---------------------------------------------------------------------

 SCF Done:  E(RB+HF-LYP) =  -2750.03105535     A.U. after   12 cycles

 The electronic state is 1-A.
 Alpha  occ. eigenvalues -- -145.52466-145.50032-145.45751 -77.26945 -19.31911
 Alpha  occ. eigenvalues --  -19.23173 -19.23155 -19.22622 -19.22613 -15.59280
 Alpha  occ. eigenvalues --  -15.56929 -15.52652 -12.72509 -12.72491 -12.72375
 Alpha  occ. eigenvalues --  -12.70163 -12.70146 -12.69996 -12.65888 -12.65841
 Alpha  occ. eigenvalues --  -12.65739  -6.73245  -4.90004  -4.89489  -4.88498
 Alpha  occ. eigenvalues --   -1.96407  -1.94167  -1.89987  -1.24328  -1.23994
 Alpha  occ. eigenvalues --   -1.23928  -1.22050  -1.21923  -1.21826  -1.18140
 Alpha  occ. eigenvalues --   -1.17908  -1.17502  -1.12787  -1.05796  -1.04903
 Alpha  occ. eigenvalues --   -0.86996  -0.86383  -0.69613  -0.53393  -0.52107
 Alpha  occ. eigenvalues --   -0.51797  -0.46574  -0.46000  -0.45775  -0.44511
 Alpha  occ. eigenvalues --   -0.44031  -0.42826  -0.34749  -0.34090  -0.32028
 Alpha  occ. eigenvalues --   -0.31946  -0.30620
 Alpha virt. eigenvalues --   -0.26300  -0.19919  -0.17126  -0.14463  -0.13341
 Alpha virt. eigenvalues --   -0.12636  -0.11439  -0.09807  -0.09290  -0.08804
 Alpha virt. eigenvalues --   -0.07310  -0.07089  -0.06602  -0.06016  -0.05840

 Mulliken atomic charges:
              1
     1  O   -0.674998
     2  O   -0.663157
     3  O   -0.662343
     4  O   -0.667241
     5  Ca   1.452688
     6  P    0.048600
     7  O   -0.702800
     8  Ca   1.512674
     9  Ca   1.356576
 Sum of Mulliken charges=   1.00000

 Dipole moment (field-independent basis, Debye):
    X=     3.3711    Y=     2.6616    Z=     0.0080  Tot=     4.2951
 Quadrupole moment (field-independent basis, Debye-Ang):
   XX=   -54.3815   YY=   -51.1685   ZZ=   -81.0545
   XY=     2.5287   XZ=    -0.3541   YZ=     1.9629

 Normal termination of Gaussian 03 at Fri Jun 12 17:54:47 2015.
