 Gaussian 03, Revision E.01,
 Gaussian 03:  EM64T-G03RevE.01 11-Sep-2007

 ----------------------------------------------------
 # b3lyp/6-31+G(d,p) int=ultrafine pop=(ReadRadii,MK)
 ----------------------------------------------------

 -----------------------------------------
 mol_17.23.15.pdbcccc_plusQ.z58215.zip.xyz
 -----------------------------------------
 Symbolic Z-matrix:
 Charge =  1 Multiplicity = 1

                         Standard orientation:
 ---------------------------------------------------------------------
 Center     Atomic     Atomic              Coordinates (Angstroms)
 Number     Number      Type              X           Y           Z
 ---------------------------------------------------------------------
    1          8             0       -2.614210   -0.139830    0.000000
    2         15             0       -1.305799   -0.960339    0.000000
    3         20             0       -1.930770    2.144841    0.000000
    4          8             0        0.308650    2.719441    0.000000
    5          8             0        0.000000    1.195301    0.000000
    6         20             0        2.200690    1.119512    0.000000
    7          8             0        2.517501   -1.023328    0.000000
    8         20             0        1.148621   -2.644988    0.000000
    9          8             0       -1.309919   -2.499359    0.000000
 ---------------------------------------------------------------------

 SCF Done:  E(RB+HF-LYP) =  -2750.13357243     A.U. after   10 cycles

 The electronic state is 1-A'.
 Alpha  occ. eigenvalues -- -145.53132-145.49946-145.45496 -77.27353 -19.26245
 Alpha  occ. eigenvalues --  -19.26049 -19.23340 -19.23108 -19.11532 -15.59915
 Alpha  occ. eigenvalues --  -15.56818 -15.52383 -12.73187 -12.73077 -12.73022
 Alpha  occ. eigenvalues --  -12.70069 -12.70038 -12.69861 -12.65656 -12.65564
 Alpha  occ. eigenvalues --  -12.65433  -6.72950  -4.89341  -4.89164  -4.88797
 Alpha  occ. eigenvalues --   -1.96940  -1.93925  -1.89678  -1.24776  -1.24743
 Alpha  occ. eigenvalues --   -1.24026  -1.21743  -1.21681  -1.20586  -1.17708
 Alpha  occ. eigenvalues --   -1.17668  -1.16590  -1.11544  -1.07222  -1.06380
 Alpha  occ. eigenvalues --   -0.86991  -0.85662  -0.64347  -0.53127  -0.52569
 Alpha  occ. eigenvalues --   -0.50282  -0.46705  -0.46426  -0.44216  -0.43745
 Alpha  occ. eigenvalues --   -0.43572  -0.35541  -0.34746  -0.31903  -0.31216
 Alpha  occ. eigenvalues --   -0.29798  -0.29513
 Alpha virt. eigenvalues --   -0.19996  -0.17692  -0.17321  -0.15031  -0.11889
 Alpha virt. eigenvalues --   -0.10333  -0.10271  -0.09996  -0.09110  -0.08532
 Alpha virt. eigenvalues --   -0.08204  -0.06886  -0.06466  -0.05838  -0.05331

 Mulliken atomic charges:
              1
     1  O   -0.751186
     2  P    0.576724
     3  Ca   1.533561
     4  O   -0.751908
     5  O   -0.638513
     6  Ca   1.422362
     7  O   -1.220933
     8  Ca   1.411393
     9  O   -0.581499
 Sum of Mulliken charges=   1.00000

 Dipole moment (field-independent basis, Debye):
    X=    -0.7618    Y=     3.5881    Z=     0.0000  Tot=     3.6681
 Quadrupole moment (field-independent basis, Debye-Ang):
   XX=   -60.1477   YY=   -29.5411   ZZ=   -73.8956
   XY=   -27.7800   XZ=     0.0000   YZ=     0.0000

 Normal termination of Gaussian 03 at Fri Jun 12 17:52:03 2015.
