 Gaussian 03, Revision E.01,
 Gaussian 03:  EM64T-G03RevE.01 11-Sep-2007

 ----------------------------------------------------
 # b3lyp/6-31+G(d,p) int=ultrafine pop=(ReadRadii,MK)
 ----------------------------------------------------

 -----------------------------------------
 mol_17.27.46.pdbcccc_plusQ.z58512.zip.xyz
 -----------------------------------------
 Symbolic Z-matrix:
 Charge =  1 Multiplicity = 1

                         Standard orientation:
 ---------------------------------------------------------------------
 Center     Atomic     Atomic              Coordinates (Angstroms)
 Number     Number      Type              X           Y           Z
 ---------------------------------------------------------------------
    1          8             0        0.640216    0.415562   -1.501100
    2          8             0        0.422774    1.045321    1.404030
    3         20             0       -0.819989   -0.888813    1.515230
    4         20             0       -0.724409    1.916188   -0.336880
    5         15             0        0.117952   -1.141280   -1.426580
    6         20             0        2.163257    0.233947    0.312280
    7          8             0        0.835343   -1.605057   -0.011660
    8          8             0       -1.552659   -1.014305   -0.879370
    9          8             0       -2.113983    0.145073   -0.063640
 ---------------------------------------------------------------------

 SCF Done:  E(RB+HF-LYP) =  -2750.21035872     A.U. after    8 cycles

 The electronic state is 1-A.
 Alpha  occ. eigenvalues -- -145.50968-145.50030-145.49672 -77.27042 -19.28850
 Alpha  occ. eigenvalues --  -19.25349 -19.23431 -19.23034 -19.16660 -15.57804
 Alpha  occ. eigenvalues --  -15.56855 -15.56463 -12.71013 -12.70976 -12.70927
 Alpha  occ. eigenvalues --  -12.70048 -12.70038 -12.69993 -12.69683 -12.69626
 Alpha  occ. eigenvalues --  -12.69613  -6.72136  -4.88563  -4.88424  -4.87901
 Alpha  occ. eigenvalues --   -1.95105  -1.94139  -1.93675  -1.23170  -1.22842
 Alpha  occ. eigenvalues --   -1.22455  -1.22336  -1.21696  -1.21427  -1.21271
 Alpha  occ. eigenvalues --   -1.21085  -1.20716  -1.13177  -1.07399  -1.02698
 Alpha  occ. eigenvalues --   -0.93097  -0.91569  -0.65297  -0.55840  -0.52713
 Alpha  occ. eigenvalues --   -0.51419  -0.48525  -0.47291  -0.44384  -0.42317
 Alpha  occ. eigenvalues --   -0.39784  -0.38426  -0.37056  -0.36741  -0.35859
 Alpha  occ. eigenvalues --   -0.34626  -0.32791
 Alpha virt. eigenvalues --   -0.20650  -0.18458  -0.17447  -0.13977  -0.12920
 Alpha virt. eigenvalues --   -0.11313  -0.10747  -0.09643  -0.08859  -0.08056
 Alpha virt. eigenvalues --   -0.07442  -0.06426  -0.06170  -0.05806  -0.05312

 Mulliken atomic charges:
              1
     1  O   -1.036891
     2  O   -1.263932
     3  Ca   1.451662
     4  Ca   1.494557
     5  P    1.074278
     6  Ca   1.421821
     7  O   -1.033434
     8  O   -0.486899
     9  O   -0.621162
 Sum of Mulliken charges=   1.00000

 Dipole moment (field-independent basis, Debye):
    X=     4.9177    Y=     5.7906    Z=     5.8573  Tot=     9.5928
 Quadrupole moment (field-independent basis, Debye-Ang):
   XX=   -52.0504   YY=   -58.0352   ZZ=   -75.4537
   XY=    -2.2069   XZ=    -6.0124   YZ=   -22.4446

 Normal termination of Gaussian 03 at Fri Jun 12 18:06:50 2015.
