 Gaussian 03, Revision E.01,
 Gaussian 03:  EM64T-G03RevE.01 11-Sep-2007

 ----------------------------------------------------
 # b3lyp/6-31+G(d,p) int=ultrafine pop=(ReadRadii,MK)
 ----------------------------------------------------

 ------------------------------------------
 mol_16.5.18.pdbc_plusQc.out.z51623.zip.xyz
 ------------------------------------------
 Symbolic Z-matrix:
 Charge =  1 Multiplicity = 1

                         Standard orientation:
 ---------------------------------------------------------------------
 Center     Atomic     Atomic              Coordinates (Angstroms)
 Number     Number      Type              X           Y           Z
 ---------------------------------------------------------------------
    1          8             0       -3.246880   -0.000129    0.000169
    2         15             0       -1.776480   -0.000054   -0.000021
    3          8             0       -0.949075   -1.278227   -0.000311
    4          8             0       -0.949206    1.278203    0.000059
    5         20             0        1.256546    1.894036   -0.000051
    6         20             0        1.256724   -1.893964    0.000059
    7          8             0        2.192890    0.000073    0.000099
 ---------------------------------------------------------------------

 SCF Done:  E(RB+HF-LYP) =  -1997.36495558     A.U. after    9 cycles

 The electronic state is 1-A.
 Alpha  occ. eigenvalues -- -145.53594-145.53594 -77.35860 -19.29931 -19.29930
 Alpha  occ. eigenvalues --  -19.27563 -19.15852 -15.60449 -15.60449 -12.73700
 Alpha  occ. eigenvalues --  -12.73700 -12.73625 -12.73625 -12.73535 -12.73533
 Alpha  occ. eigenvalues --   -6.81069  -4.97686  -4.97215  -4.97119  -1.97567
 Alpha  occ. eigenvalues --   -1.97550  -1.25348  -1.25329  -1.25296  -1.25084
 Alpha  occ. eigenvalues --   -1.24706  -1.24174  -1.18400  -1.11387  -1.10401
 Alpha  occ. eigenvalues --   -0.90349  -0.67784  -0.60015  -0.56615  -0.55840
 Alpha  occ. eigenvalues --   -0.50172  -0.48058  -0.47798  -0.45415  -0.42510
 Alpha  occ. eigenvalues --   -0.36652  -0.34566  -0.34388
 Alpha virt. eigenvalues --   -0.22299  -0.20459  -0.16813  -0.14887  -0.13474
 Alpha virt. eigenvalues --   -0.12518  -0.11816  -0.10787  -0.09941  -0.08257
 Alpha virt. eigenvalues --   -0.07257  -0.06248  -0.05558  -0.05269  -0.04859

 Mulliken atomic charges:
              1
     1  O   -0.611796
     2  P    1.559128
     3  O   -0.860156
     4  O   -0.860147
     5  Ca   1.485254
     6  Ca   1.485255
     7  O   -1.197539
 Sum of Mulliken charges=   1.00000

 Dipole moment (field-independent basis, Debye):
    X=     8.6782    Y=     0.0002    Z=    -0.0003  Tot=     8.6782
 Quadrupole moment (field-independent basis, Debye-Ang):
   XX=   -74.7305   YY=    -7.7819   ZZ=   -53.5429
   XY=    -0.0030   XZ=    -0.0003   YZ=    -0.0034

 Normal termination of Gaussian 03 at Fri Jun 12 17:49:38 2015.
