 Gaussian 03, Revision E.01,
 Gaussian 03:  EM64T-G03RevE.01 11-Sep-2007

 ----------------------------------------------------
 # b3lyp/6-31+G(d,p) int=ultrafine pop=(ReadRadii,MK)
 ----------------------------------------------------

 -----------------------------------------
 mol_17.25.46.pdbcccc_plusQ.z58351.zip.xyz
 -----------------------------------------
 Symbolic Z-matrix:
 Charge =  1 Multiplicity = 1

                         Standard orientation:
 ---------------------------------------------------------------------
 Center     Atomic     Atomic              Coordinates (Angstroms)
 Number     Number      Type              X           Y           Z
 ---------------------------------------------------------------------
    1          8             0       -1.333887   -2.040251   -0.000220
    2          8             0       -2.595310    0.164927    0.000210
    3         15             0       -2.727278   -1.369683   -0.000280
    4         20             0       -1.831574    2.336268    0.000120
    5         20             0        1.847247    1.772054   -0.000260
    6          8             0        1.943210   -0.251615   -1.196040
    7          8             0        2.815161   -0.476374    0.000140
    8          8             0        1.942630   -0.251195    1.196180
    9         20             0        0.921063   -1.939257    0.000240
 ---------------------------------------------------------------------

 SCF Done:  E(RB+HF-LYP) =  -2750.06911263     A.U. after   10 cycles

 The electronic state is 1-A.
 Alpha  occ. eigenvalues -- -145.52262-145.51791-145.50965 -77.29696 -19.37622
 Alpha  occ. eigenvalues --  -19.28152 -19.28151 -19.27630 -19.27352 -15.59064
 Alpha  occ. eigenvalues --  -15.58769 -15.57898 -12.72299 -12.72271 -12.72168
 Alpha  occ. eigenvalues --  -12.71966 -12.71948 -12.71842 -12.71111 -12.71074
 Alpha  occ. eigenvalues --  -12.70997  -6.75174  -4.91619  -4.91401  -4.90951
 Alpha  occ. eigenvalues --   -1.96188  -1.95880  -1.95051  -1.27014  -1.23869
 Alpha  occ. eigenvalues --   -1.23702  -1.23383  -1.23306  -1.23028  -1.22824
 Alpha  occ. eigenvalues --   -1.22518  -1.22439  -1.19078  -1.13498  -1.08177
 Alpha  occ. eigenvalues --   -1.03901  -0.88806  -0.67514  -0.57907  -0.57306
 Alpha  occ. eigenvalues --   -0.56298  -0.55888  -0.52318  -0.52177  -0.45421
 Alpha  occ. eigenvalues --   -0.44236  -0.43617  -0.42136  -0.40198  -0.39508
 Alpha  occ. eigenvalues --   -0.36789  -0.27635
 Alpha virt. eigenvalues --   -0.19452  -0.18926  -0.17823  -0.14939  -0.14681
 Alpha virt. eigenvalues --   -0.13303  -0.12238  -0.11258  -0.10013  -0.09132
 Alpha virt. eigenvalues --   -0.07995  -0.07830  -0.07760  -0.06845  -0.06779

 Mulliken atomic charges:
              1
     1  O   -0.709873
     2  O   -0.626687
     3  P    0.684932
     4  Ca   0.628181
     5  Ca   0.861537
     6  O   -0.605900
     7  O   -0.046955
     8  O   -0.605893
     9  Ca   1.420658
 Sum of Mulliken charges=   1.00000

 Dipole moment (field-independent basis, Debye):
    X=     0.2356    Y=     1.6169    Z=     0.0004  Tot=     1.6340
 Quadrupole moment (field-independent basis, Debye-Ang):
   XX=   -65.9600   YY=   -43.3250   ZZ=   -89.4191
   XY=    -9.0895   XZ=    -0.0021   YZ=    -0.0055

 Normal termination of Gaussian 03 at Fri Jun 12 17:58:27 2015.
