 Gaussian 03, Revision E.01,
 Gaussian 03:  EM64T-G03RevE.01 11-Sep-2007

 ----------------------------------------------------
 # b3lyp/6-31+G(d,p) int=ultrafine pop=(ReadRadii,MK)
 ----------------------------------------------------

 -----------------------------------------
 mol_17.28.21.pdbcccc_plusQ.z58544.zip.xyz
 -----------------------------------------
 Symbolic Z-matrix:
 Charge =  1 Multiplicity = 1

                         Standard orientation:
 ---------------------------------------------------------------------
 Center     Atomic     Atomic              Coordinates (Angstroms)
 Number     Number      Type              X           Y           Z
 ---------------------------------------------------------------------
    1          8             0        3.410787   -0.653419   -0.011389
    2          8             0       -0.819863   -0.879341   -0.775969
    3         20             0       -3.076013   -0.693723   -0.005889
    4         15             0        3.170646    0.866801   -0.006529
    5         20             0        1.221657   -1.492320    0.006801
    6          8             0        1.613286    1.040470    0.010081
    7          8             0       -2.874634    1.416248   -0.003349
    8         20             0       -0.725794    1.518549    0.004391
    9          8             0       -0.824163   -0.880471    0.779611
 ---------------------------------------------------------------------

 SCF Done:  E(RB+HF-LYP) =  -2750.19922643     A.U. after    8 cycles

 The electronic state is 1-A.
 Alpha  occ. eigenvalues -- -145.53304-145.48100-145.46498 -77.31651 -19.29961
 Alpha  occ. eigenvalues --  -19.29141 -19.27659 -19.27654 -19.10310 -15.60149
 Alpha  occ. eigenvalues --  -15.54937 -15.53357 -12.73386 -12.73381 -12.73216
 Alpha  occ. eigenvalues --  -12.68156 -12.68120 -12.68041 -12.66611 -12.66575
 Alpha  occ. eigenvalues --  -12.66406  -6.77275  -4.93707  -4.93475  -4.93057
 Alpha  occ. eigenvalues --   -1.97334  -1.92135  -1.90667  -1.25317  -1.25147
 Alpha  occ. eigenvalues --   -1.25007  -1.20357  -1.19790  -1.19239  -1.18528
 Alpha  occ. eigenvalues --   -1.18452  -1.17870  -1.15554  -1.10915  -1.09767
 Alpha  occ. eigenvalues --   -0.91293  -0.84519  -0.68934  -0.57901  -0.55274
 Alpha  occ. eigenvalues --   -0.54485  -0.51226  -0.50450  -0.49467  -0.46905
 Alpha  occ. eigenvalues --   -0.45458  -0.42703  -0.38850  -0.36718  -0.30146
 Alpha  occ. eigenvalues --   -0.28561  -0.28508
 Alpha virt. eigenvalues --   -0.21600  -0.19566  -0.17911  -0.15027  -0.15012
 Alpha virt. eigenvalues --   -0.11256  -0.10532  -0.09853  -0.09288  -0.08793
 Alpha virt. eigenvalues --   -0.08675  -0.08136  -0.07318  -0.06845  -0.06404

 Mulliken atomic charges:
              1
     1  O   -0.647315
     2  O   -0.694582
     3  Ca   1.362951
     4  P    0.680208
     5  Ca   1.503208
     6  O   -0.742688
     7  O   -1.123808
     8  Ca   1.356105
     9  O   -0.694081
 Sum of Mulliken charges=   1.00000

 Dipole moment (field-independent basis, Debye):
    X=     0.3556    Y=    -7.6423    Z=     0.0367  Tot=     7.6507
 Quadrupole moment (field-independent basis, Debye-Ang):
   XX=   -63.4052   YY=   -57.0798   ZZ=   -77.2561
   XY=    23.1670   XZ=     0.1689   YZ=    -0.0241

 Normal termination of Gaussian 03 at Fri Jun 12 18:08:34 2015.
