 Gaussian 03, Revision E.01,
 Gaussian 03:  EM64T-G03RevE.01 11-Sep-2007

 ----------------------------------------------------
 # b3lyp/6-31+G(d,p) int=ultrafine pop=(ReadRadii,MK)
 ----------------------------------------------------

 -----------------------------------------
 mol_17.29.49.pdbcccc_plusQ.z58631.zip.xyz
 -----------------------------------------
 Symbolic Z-matrix:
 Charge =  1 Multiplicity = 1

                         Standard orientation:
 ---------------------------------------------------------------------
 Center     Atomic     Atomic              Coordinates (Angstroms)
 Number     Number      Type              X           Y           Z
 ---------------------------------------------------------------------
    1          8             0       -4.703509   -1.075111   -0.074540
    2         15             0       -3.953750    0.184450   -0.024100
    3          8             0       -4.300580    1.618220   -0.048220
    4          8             0       -2.340230    0.075470    0.082990
    5          8             0       -1.757069   -1.322690    0.091770
    6         20             0        0.007510    0.077880    0.039740
    7         20             0        3.726500    1.738821   -0.007710
    8          8             0        2.233240    0.079890   -0.000610
    9         20             0        3.578561   -1.705349   -0.034510
 ---------------------------------------------------------------------

 SCF Done:  E(RB+HF-LYP) =  -2750.02860779     A.U. after   11 cycles

 The electronic state is 1-A.
 Alpha  occ. eigenvalues -- -145.53939-145.53646-145.51471 -77.33467 -19.36110
 Alpha  occ. eigenvalues --  -19.26728 -19.26654 -19.26451 -19.21694 -15.60912
 Alpha  occ. eigenvalues --  -15.60624 -15.58377 -12.74105 -12.74103 -12.73984
 Alpha  occ. eigenvalues --  -12.73817 -12.73814 -12.73693 -12.71643 -12.71607
 Alpha  occ. eigenvalues --  -12.71395  -6.78876  -4.95396  -4.95122  -4.94855
 Alpha  occ. eigenvalues --   -1.98006  -1.97732  -1.95680  -1.25583  -1.25485
 Alpha  occ. eigenvalues --   -1.25282  -1.25215  -1.25137  -1.24567  -1.24335
 Alpha  occ. eigenvalues --   -1.23583  -1.23428  -1.19847  -1.12804  -1.08885
 Alpha  occ. eigenvalues --   -0.96727  -0.96177  -0.67764  -0.57216  -0.56805
 Alpha  occ. eigenvalues --   -0.56540  -0.50574  -0.48572  -0.45561  -0.43108
 Alpha  occ. eigenvalues --   -0.42867  -0.42286  -0.41707  -0.40285  -0.39003
 Alpha  occ. eigenvalues --   -0.36431  -0.29049
 Alpha virt. eigenvalues --   -0.22821  -0.19804  -0.16973  -0.16625  -0.15962
 Alpha virt. eigenvalues --   -0.14787  -0.13948  -0.12765  -0.12599  -0.12037
 Alpha virt. eigenvalues --   -0.11851  -0.09588  -0.08709  -0.07966  -0.06485

 Mulliken atomic charges:
              1
     1  O   -0.594392
     2  P    1.509274
     3  O   -0.623910
     4  O   -0.515581
     5  O   -0.480169
     6  Ca   1.383951
     7  Ca   0.705961
     8  O   -1.090613
     9  Ca   0.705480
 Sum of Mulliken charges=   1.00000

 Dipole moment (field-independent basis, Debye):
    X=    19.7690    Y=     2.1523    Z=    -0.0337  Tot=    19.8859
 Quadrupole moment (field-independent basis, Debye-Ang):
   XX=   -55.9719   YY=   -66.1739   ZZ=   -83.1904
   XY=    -3.3860   XZ=    -0.6897   YZ=     0.5290

 Normal termination of Gaussian 03 at Fri Jun 12 18:13:00 2015.
