 Gaussian 03, Revision E.01,
 Gaussian 03:  EM64T-G03RevE.01 11-Sep-2007

 ----------------------------------------------------
 # b3lyp/6-31+G(d,p) int=ultrafine pop=(ReadRadii,MK)
 ----------------------------------------------------

 ------------------------------------------
 mol_16.4.59.pdbcc_plusQ.out.z51609.zip.xyz
 ------------------------------------------
 Symbolic Z-matrix:
 Charge =  1 Multiplicity = 1

                         Standard orientation:
 ---------------------------------------------------------------------
 Center     Atomic     Atomic              Coordinates (Angstroms)
 Number     Number      Type              X           Y           Z
 ---------------------------------------------------------------------
    1          8             0        1.713403    0.000916   -0.786200
    2          8             0        1.713323    0.000896    0.786330
    3          8             0       -1.443038    1.272837   -0.000470
    4         15             0       -2.319957   -0.001117    0.000270
    5         20             0        0.762571   -1.857878   -0.000030
    6          8             0       -1.441635   -1.274143   -0.000220
    7         20             0        0.760576    1.858512    0.000050
 ---------------------------------------------------------------------

 SCF Done:  E(RB+HF-LYP) =  -1997.33372465     A.U. after    6 cycles

 The electronic state is 1-A.
 Alpha  occ. eigenvalues -- -145.53247-145.53244 -77.30163 -19.27960 -19.27944
 Alpha  occ. eigenvalues --  -19.25597 -19.25579 -15.60094 -15.60092 -12.73309
 Alpha  occ. eigenvalues --  -12.73306 -12.73291 -12.73288 -12.73209 -12.73205
 Alpha  occ. eigenvalues --   -6.75644  -4.92084  -4.91869  -4.91424  -1.97236
 Alpha  occ. eigenvalues --   -1.97209  -1.25764  -1.24806  -1.24792  -1.24725
 Alpha  occ. eigenvalues --   -1.24725  -1.24302  -1.13923  -1.08554  -1.08246
 Alpha  occ. eigenvalues --   -0.89522  -0.67705  -0.57281  -0.52822  -0.52600
 Alpha  occ. eigenvalues --   -0.48991  -0.47942  -0.46117  -0.45762  -0.43900
 Alpha  occ. eigenvalues --   -0.40701  -0.37191  -0.34166
 Alpha virt. eigenvalues --   -0.20456  -0.19853  -0.19631  -0.14482  -0.11367
 Alpha virt. eigenvalues --   -0.11280  -0.10319  -0.09666  -0.09046  -0.07375
 Alpha virt. eigenvalues --   -0.07215  -0.06432  -0.05962  -0.05215  -0.04857

 Mulliken atomic charges:
              1
     1  O   -0.668697
     2  O   -0.668443
     3  O   -0.709926
     4  P    0.668775
     5  Ca   1.544039
     6  O   -0.709740
     7  Ca   1.543992
 Sum of Mulliken charges=   1.00000

 Dipole moment (field-independent basis, Debye):
    X=     3.1402    Y=    -0.0014    Z=     0.0029  Tot=     3.1402
 Quadrupole moment (field-independent basis, Debye-Ang):
   XX=   -66.5050   YY=    -8.8803   ZZ=   -58.2539
   XY=    -0.0297   XZ=     0.0004   YZ=     0.0025

 Normal termination of Gaussian 03 at Fri Jun 12 17:48:54 2015.
