 Gaussian 03, Revision E.01,
 Gaussian 03:  EM64T-G03RevE.01 11-Sep-2007

 ----------------------------------------------------
 # b3lyp/6-31+G(d,p) int=ultrafine pop=(ReadRadii,MK)
 ----------------------------------------------------

 -----------------------------------------
 mol_17.29.10.pdbcccc_plusQ.z58590.zip.xyz
 -----------------------------------------
 Symbolic Z-matrix:
 Charge =  1 Multiplicity = 1

                         Standard orientation:
 ---------------------------------------------------------------------
 Center     Atomic     Atomic              Coordinates (Angstroms)
 Number     Number      Type              X           Y           Z
 ---------------------------------------------------------------------
    1          8             0        1.613292    1.040750    0.011110
    2          8             0       -2.874888    1.415950   -0.003280
    3         20             0       -0.726118    1.518860    0.004260
    4         15             0        3.170592    0.866851   -0.006710
    5          8             0        3.410742   -0.653399   -0.011590
    6          8             0       -0.819238   -0.878940   -0.776370
    7          8             0       -0.824188   -0.880780    0.779280
    8         20             0       -3.075898   -0.694000   -0.005830
    9         20             0        1.221783   -1.492430    0.006940
 ---------------------------------------------------------------------

 SCF Done:  E(RB+HF-LYP) =  -2750.19922614     A.U. after    8 cycles

 The electronic state is 1-A.
 Alpha  occ. eigenvalues -- -145.53301-145.48102-145.46501 -77.31648 -19.29958
 Alpha  occ. eigenvalues --  -19.29139 -19.27658 -19.27653 -19.10311 -15.60147
 Alpha  occ. eigenvalues --  -15.54939 -15.53360 -12.73383 -12.73378 -12.73213
 Alpha  occ. eigenvalues --  -12.68157 -12.68121 -12.68042 -12.66614 -12.66578
 Alpha  occ. eigenvalues --  -12.66409  -6.77272  -4.93704  -4.93472  -4.93054
 Alpha  occ. eigenvalues --   -1.97332  -1.92136  -1.90669  -1.25314  -1.25144
 Alpha  occ. eigenvalues --   -1.25004  -1.20357  -1.19791  -1.19240  -1.18530
 Alpha  occ. eigenvalues --   -1.18453  -1.17871  -1.15551  -1.10912  -1.09764
 Alpha  occ. eigenvalues --   -0.91292  -0.84521  -0.68930  -0.57898  -0.55271
 Alpha  occ. eigenvalues --   -0.54482  -0.51224  -0.50448  -0.49465  -0.46902
 Alpha  occ. eigenvalues --   -0.45456  -0.42699  -0.38849  -0.36717  -0.30148
 Alpha  occ. eigenvalues --   -0.28563  -0.28510
 Alpha virt. eigenvalues --   -0.21597  -0.19565  -0.17911  -0.15028  -0.15012
 Alpha virt. eigenvalues --   -0.11255  -0.10532  -0.09853  -0.09289  -0.08794
 Alpha virt. eigenvalues --   -0.08673  -0.08136  -0.07318  -0.06844  -0.06403

 Mulliken atomic charges:
              1
     1  O   -0.742638
     2  O   -1.123828
     3  Ca   1.356221
     4  P    0.680124
     5  O   -0.647335
     6  O   -0.694581
     7  O   -0.694088
     8  Ca   1.362972
     9  Ca   1.503152
 Sum of Mulliken charges=   1.00000

 Dipole moment (field-independent basis, Debye):
    X=     0.3529    Y=    -7.6416    Z=     0.0366  Tot=     7.6498
 Quadrupole moment (field-independent basis, Debye-Ang):
   XX=   -63.4163   YY=   -57.0628   ZZ=   -77.2567
   XY=    23.1617   XZ=     0.1700   YZ=    -0.0320

 Normal termination of Gaussian 03 at Fri Jun 12 18:11:17 2015.
