 Gaussian 03, Revision E.01,
 Gaussian 03:  EM64T-G03RevE.01 11-Sep-2007

 ----------------------------------------------------
 # b3lyp/6-31+G(d,p) int=ultrafine pop=(ReadRadii,MK)
 ----------------------------------------------------

 ----------------------------------------
 mol_16.4.31.pdb_plusQ.out.z51581.zip.xyz
 ----------------------------------------
 Symbolic Z-matrix:
 Charge =  1 Multiplicity = 1

                         Standard orientation:
 ---------------------------------------------------------------------
 Center     Atomic     Atomic              Coordinates (Angstroms)
 Number     Number      Type              X           Y           Z
 ---------------------------------------------------------------------
    1          8             0        2.641430    0.682523    0.000000
    2         15             0        1.165281    0.213961    0.000000
    3          8             0        2.880119    2.102453    0.000000
    4          8             0        0.000000    1.179850    0.000000
    5         20             0       -2.285060    1.171239    0.000000
    6         20             0       -1.145817   -2.406620    0.000000
    7          8             0        0.870742   -1.277549    0.000000
 ---------------------------------------------------------------------

 SCF Done:  E(RB+HF-LYP) =  -1997.10741837     A.U. after    9 cycles

 The electronic state is 1-A'.
 Alpha  occ. eigenvalues -- -145.58856-145.58785 -77.38775 -19.37866 -19.32993
 Alpha  occ. eigenvalues --  -19.32743 -19.23014 -15.65757 -15.65701 -12.78960
 Alpha  occ. eigenvalues --  -12.78933 -12.78901 -12.78879 -12.78864 -12.78803
 Alpha  occ. eigenvalues --   -6.84035  -5.00442  -5.00254  -5.00198  -2.02668
 Alpha  occ. eigenvalues --   -2.02619  -1.30117  -1.30107  -1.30057  -1.29944
 Alpha  occ. eigenvalues --   -1.29841  -1.29718  -1.24261  -1.18374  -1.14545
 Alpha  occ. eigenvalues --   -0.94245  -0.71000  -0.62746  -0.61849  -0.59778
 Alpha  occ. eigenvalues --   -0.54384  -0.54198  -0.52352  -0.50690  -0.48416
 Alpha  occ. eigenvalues --   -0.32967  -0.32323  -0.31677
 Alpha virt. eigenvalues --   -0.24936  -0.20711  -0.19217  -0.18726  -0.18356
 Alpha virt. eigenvalues --   -0.15174  -0.15046  -0.13488  -0.11081  -0.10382
 Alpha virt. eigenvalues --   -0.08232  -0.07516  -0.06988  -0.06711  -0.06399

 Mulliken atomic charges:
              1
     1  O   -0.378389
     2  P    1.531500
     3  O   -0.312027
     4  O   -0.751411
     5  Ca   0.821066
     6  Ca   0.777753
     7  O   -0.688492
 Sum of Mulliken charges=   1.00000

 Dipole moment (field-independent basis, Debye):
    X=   -14.9254    Y=    -6.6092    Z=     0.0000  Tot=    16.3233
 Quadrupole moment (field-independent basis, Debye-Ang):
   XX=   -58.6171   YY=   -34.1462   ZZ=   -62.1742
   XY=   -16.0973   XZ=     0.0000   YZ=     0.0000

 Normal termination of Gaussian 03 at Fri Jun 12 17:48:14 2015.
