 Gaussian 03, Revision E.01,
 Gaussian 03:  EM64T-G03RevE.01 11-Sep-2007

 ----------------------------------------------------
 # b3lyp/6-31+G(d,p) int=ultrafine pop=(ReadRadii,MK)
 ----------------------------------------------------

 --------------------------------------
 mol_17.23.46.pdbc_plusQ.z58247.zip.xyz
 --------------------------------------
 Symbolic Z-matrix:
 Charge =  1 Multiplicity = 1

                         Standard orientation:
 ---------------------------------------------------------------------
 Center     Atomic     Atomic              Coordinates (Angstroms)
 Number     Number      Type              X           Y           Z
 ---------------------------------------------------------------------
    1          8             0       -2.390701    3.221929    0.000000
    2         15             0       -1.513670    2.039299    0.000000
    3          8             0       -2.052349    0.620919    0.000000
    4         20             0       -2.092678   -1.663871    0.000000
    5          8             0       -0.306407   -2.767320    0.000000
    6         20             0        1.833552   -2.470169    0.000000
    7          8             0        2.738601   -0.508449    0.000000
    8         20             0        2.198720    1.520551    0.000000
    9          8             0        0.000000    2.142960    0.000000
 ---------------------------------------------------------------------

 SCF Done:  E(RB+HF-LYP) =  -2750.22997687     A.U. after    9 cycles

 The electronic state is 1-A'.
 Alpha  occ. eigenvalues -- -145.50369-145.50367-145.43689 -77.35675 -19.29665
 Alpha  occ. eigenvalues --  -19.29660 -19.27207 -19.12851 -19.12724 -15.57238
 Alpha  occ. eigenvalues --  -15.57236 -15.50713 -12.70490 -12.70489 -12.70442
 Alpha  occ. eigenvalues --  -12.70441 -12.70285 -12.70284 -12.63971 -12.63920
 Alpha  occ. eigenvalues --  -12.63710  -6.80858  -4.97481  -4.97010  -4.96909
 Alpha  occ. eigenvalues --   -1.94440  -1.94438  -1.88182  -1.22346  -1.22267
 Alpha  occ. eigenvalues --   -1.22265  -1.22161  -1.21409  -1.21336  -1.18013
 Alpha  occ. eigenvalues --   -1.16219  -1.15918  -1.15019  -1.11182  -1.10068
 Alpha  occ. eigenvalues --   -0.87145  -0.86552  -0.67796  -0.59918  -0.56380
 Alpha  occ. eigenvalues --   -0.55700  -0.49474  -0.47919  -0.47909  -0.45154
 Alpha  occ. eigenvalues --   -0.42121  -0.34001  -0.32345  -0.31541  -0.31176
 Alpha  occ. eigenvalues --   -0.31037  -0.30603
 Alpha virt. eigenvalues --   -0.19988  -0.18455  -0.15807  -0.14757  -0.14544
 Alpha virt. eigenvalues --   -0.11764  -0.10810  -0.09983  -0.08492  -0.08319
 Alpha virt. eigenvalues --   -0.07868  -0.07732  -0.06546  -0.06104  -0.05299

 Mulliken atomic charges:
              1
     1  O   -0.605173
     2  P    1.591602
     3  O   -0.883235
     4  Ca   1.448035
     5  O   -1.249430
     6  Ca   1.382218
     7  O   -1.247463
     8  Ca   1.446821
     9  O   -0.883375
 Sum of Mulliken charges=   1.00000

 Dipole moment (field-independent basis, Debye):
    X=     1.9992    Y=    -2.7012    Z=     0.0000  Tot=     3.3606
 Quadrupole moment (field-independent basis, Debye-Ang):
   XX=   -43.6372   YY=   -59.5973   ZZ=   -72.7285
   XY=    26.3247   XZ=     0.0000   YZ=     0.0000

 Normal termination of Gaussian 03 at Fri Jun 12 17:53:31 2015.
