 Gaussian 03, Revision E.01,
 Gaussian 03:  EM64T-G03RevE.01 11-Sep-2007

 ----------------------------------------------------
 # b3lyp/6-31+G(d,p) int=ultrafine pop=(ReadRadii,MK)
 ----------------------------------------------------

 --------------------------------------
 mol_17.24.48.pdbc_plusQ.z58301.zip.xyz
 --------------------------------------
 Symbolic Z-matrix:
 Charge =  1 Multiplicity = 1

                         Standard orientation:
 ---------------------------------------------------------------------
 Center     Atomic     Atomic              Coordinates (Angstroms)
 Number     Number      Type              X           Y           Z
 ---------------------------------------------------------------------
    1          8             0       -2.068929   -0.000279    1.103620
    2          8             0       -0.608559   -0.000319    1.520890
    3         20             0       -1.054279    1.671641   -0.137680
    4         20             0       -1.054060   -1.671689   -0.138170
    5          8             0        1.237600   -1.285039   -0.441340
    6         15             0        1.064811    0.000301   -1.531040
    7          8             0        1.237421    1.285321   -0.440900
    8          8             0       -0.590509    0.000221   -1.656220
    9         20             0        1.626921   -0.000140    1.389710
 ---------------------------------------------------------------------

 SCF Done:  E(RB+HF-LYP) =  -2750.24881765     A.U. after    7 cycles

 The electronic state is 1-A.
 Alpha  occ. eigenvalues -- -145.52395-145.50174-145.50169 -77.25158 -19.25912
 Alpha  occ. eigenvalues --  -19.25461 -19.21787 -19.21786 -19.21336 -15.59154
 Alpha  occ. eigenvalues --  -15.56973 -15.56969 -12.72342 -12.72337 -12.72311
 Alpha  occ. eigenvalues --  -12.70180 -12.70179 -12.70172 -12.70171 -12.70092
 Alpha  occ. eigenvalues --  -12.70091  -6.70246  -4.86600  -4.86592  -4.86031
 Alpha  occ. eigenvalues --   -1.96330  -1.94225  -1.94159  -1.24351  -1.23885
 Alpha  occ. eigenvalues --   -1.23788  -1.22781  -1.22073  -1.21712  -1.21637
 Alpha  occ. eigenvalues --   -1.21518  -1.21219  -1.10022  -1.07325  -1.00854
 Alpha  occ. eigenvalues --   -1.00730  -0.89081  -0.63096  -0.51340  -0.51078
 Alpha  occ. eigenvalues --   -0.50978  -0.49231  -0.48445  -0.46041  -0.43792
 Alpha  occ. eigenvalues --   -0.43557  -0.38834  -0.38643  -0.38612  -0.35303
 Alpha  occ. eigenvalues --   -0.33992  -0.31703
 Alpha virt. eigenvalues --   -0.20306  -0.18386  -0.17629  -0.12786  -0.12605
 Alpha virt. eigenvalues --   -0.10906  -0.09919  -0.09096  -0.08253  -0.07954
 Alpha virt. eigenvalues --   -0.07350  -0.06563  -0.06018  -0.05819  -0.04928

 Mulliken atomic charges:
              1
     1  O   -0.643578
     2  O   -0.725706
     3  Ca   1.462639
     4  Ca   1.462621
     5  O   -1.043804
     6  P    1.083204
     7  O   -1.043820
     8  O   -1.034757
     9  Ca   1.483200
 Sum of Mulliken charges=   1.00000

 Dipole moment (field-independent basis, Debye):
    X=    -0.9315    Y=    -0.0009    Z=     6.2078  Tot=     6.2773
 Quadrupole moment (field-independent basis, Debye-Ang):
   XX=   -63.7177   YY=   -44.2277   ZZ=   -80.5270
   XY=    -0.0065   XZ=    28.3238   YZ=     0.0068

 Normal termination of Gaussian 03 at Fri Jun 12 17:56:25 2015.
