 Gaussian 03, Revision E.01,
 Gaussian 03:  EM64T-G03RevE.01 11-Sep-2007

 ----------------------------------------------------
 # b3lyp/6-31+G(d,p) int=ultrafine pop=(ReadRadii,MK)
 ----------------------------------------------------

 ---------------------------------------
 mol_17.22.53.pdbcc_plusQ.z58203.zip.xyz
 ---------------------------------------
 Symbolic Z-matrix:
 Charge =  1 Multiplicity = 1

                         Standard orientation:
 ---------------------------------------------------------------------
 Center     Atomic     Atomic              Coordinates (Angstroms)
 Number     Number      Type              X           Y           Z
 ---------------------------------------------------------------------
    1          8             0        1.031450   -0.310699    1.295958
    2          8             0        3.286120   -0.817568    0.231188
    3          8             0        3.999600    0.013652   -0.807342
    4         20             0        2.543129    1.368762    0.171718
    5         15             0        1.615430   -1.195739    0.015848
    6          8             0        1.075160   -0.115129   -1.098872
    7         20             0       -1.006730   -0.189590    0.072808
    8          8             0       -3.168730    0.126679   -0.006962
    9         20             0       -5.237411    0.158858   -0.102002
 ---------------------------------------------------------------------

 SCF Done:  E(RB+HF-LYP) =  -2750.06870173     A.U. after    9 cycles

 The electronic state is 1-A.
 Alpha  occ. eigenvalues -- -145.58620-145.48682-145.45718 -77.22844 -19.24354
 Alpha  occ. eigenvalues --  -19.19017 -19.18993 -19.18876 -19.17389 -15.65394
 Alpha  occ. eigenvalues --  -15.55494 -15.52650 -12.78615 -12.78614 -12.78474
 Alpha  occ. eigenvalues --  -12.68704 -12.68695 -12.68610 -12.65936 -12.65860
 Alpha  occ. eigenvalues --  -12.65663  -6.68224  -4.84599  -4.84513  -4.84045
 Alpha  occ. eigenvalues --   -2.02272  -1.92650  -1.90040  -1.29798  -1.29792
 Alpha  occ. eigenvalues --   -1.28883  -1.21262  -1.20103  -1.19794  -1.18192
 Alpha  occ. eigenvalues --   -1.17683  -1.17360  -1.08975  -1.03159  -0.97569
 Alpha  occ. eigenvalues --   -0.91475  -0.86712  -0.60513  -0.50450  -0.47546
 Alpha  occ. eigenvalues --   -0.47195  -0.43020  -0.42305  -0.39910  -0.37696
 Alpha  occ. eigenvalues --   -0.37640  -0.35622  -0.35548  -0.33063  -0.32096
 Alpha  occ. eigenvalues --   -0.29314  -0.27636
 Alpha virt. eigenvalues --   -0.26019  -0.17783  -0.16118  -0.16027  -0.15090
 Alpha virt. eigenvalues --   -0.12221  -0.10593  -0.09565  -0.08557  -0.07072
 Alpha virt. eigenvalues --   -0.06705  -0.06360  -0.06141  -0.05880  -0.05790

 Mulliken atomic charges:
              1
     1  O   -0.891591
     2  O   -0.488114
     3  O   -0.505475
     4  Ca   1.309017
     5  P    0.808178
     6  O   -0.886035
     7  Ca   1.375959
     8  O   -1.172870
     9  Ca   1.450931
 Sum of Mulliken charges=   1.00000

 Dipole moment (field-independent basis, Debye):
    X=   -26.3103    Y=     9.4935    Z=     1.6376  Tot=    28.0186
 Quadrupole moment (field-independent basis, Debye-Ang):
   XX=    54.4599   YY=   -61.5651   ZZ=   -88.7466
   XY=    24.2758   XZ=    12.4329   YZ=     3.1545

 Normal termination of Gaussian 03 at Fri Jun 12 17:51:04 2015.
