 Gaussian 03, Revision E.01,
 Gaussian 03:  EM64T-G03RevE.01 11-Sep-2007

 ----------------------------------------------------
 # b3lyp/6-31+G(d,p) int=ultrafine pop=(ReadRadii,MK)
 ----------------------------------------------------

 ----------------------------------------
 mol_17.25.7.pdbcccc_plusQ.z58365.zip.xyz
 ----------------------------------------
 Symbolic Z-matrix:
 Charge =  1 Multiplicity = 1

                         Standard orientation:
 ---------------------------------------------------------------------
 Center     Atomic     Atomic              Coordinates (Angstroms)
 Number     Number      Type              X           Y           Z
 ---------------------------------------------------------------------
    1          8             0        1.413181   -0.769581   -0.001281
    2          8             0        2.828581    0.902510   -1.258141
    3          8             0        2.828171    0.898890    1.260819
    4         15             0        1.865761    0.919520    0.001199
    5         20             0        3.784471   -0.817190   -0.000981
    6         20             0       -0.750299   -0.211251   -0.000411
    7          8             0       -2.918779   -0.201211    0.787809
    8          8             0       -2.918739   -0.196951   -0.788651
    9         20             0       -4.926459    0.085339    0.000269
 ---------------------------------------------------------------------

 SCF Done:  E(RB+HF-LYP) =  -2750.13047315     A.U. after   10 cycles

 The electronic state is 1-A.
 Alpha  occ. eigenvalues -- -145.58854-145.48144-145.45252 -77.19391 -19.26244
 Alpha  occ. eigenvalues --  -19.26239 -19.16219 -19.14226 -19.14225 -15.65635
 Alpha  occ. eigenvalues --  -15.54925 -15.52170 -12.78883 -12.78819 -12.78746
 Alpha  occ. eigenvalues --  -12.68107 -12.68100 -12.68096 -12.65423 -12.65406
 Alpha  occ. eigenvalues --  -12.65197  -6.64760  -4.81179  -4.80991  -4.80738
 Alpha  occ. eigenvalues --   -2.02522  -1.91959  -1.89518  -1.30094  -1.30018
 Alpha  occ. eigenvalues --   -1.29768  -1.19987  -1.19182  -1.19165  -1.17624
 Alpha  occ. eigenvalues --   -1.17310  -1.17288  -1.08509  -1.01694  -0.94525
 Alpha  occ. eigenvalues --   -0.94173  -0.90129  -0.55730  -0.49548  -0.48843
 Alpha  occ. eigenvalues --   -0.46694  -0.43957  -0.43362  -0.42546  -0.38444
 Alpha  occ. eigenvalues --   -0.36585  -0.36329  -0.34305  -0.32343  -0.31443
 Alpha  occ. eigenvalues --   -0.28397  -0.27236
 Alpha virt. eigenvalues --   -0.25497  -0.16509  -0.16151  -0.15553  -0.13422
 Alpha virt. eigenvalues --   -0.11580  -0.11065  -0.08335  -0.08068  -0.08046
 Alpha virt. eigenvalues --   -0.07214  -0.06394  -0.05584  -0.05312  -0.05154

 Mulliken atomic charges:
              1
     1  O   -0.913936
     2  O   -0.835700
     3  O   -0.835668
     4  P    0.741887
     5  Ca   1.343089
     6  Ca   1.322046
     7  O   -0.646309
     8  O   -0.646309
     9  Ca   1.470900
 Sum of Mulliken charges=   1.00000

 Dipole moment (field-independent basis, Debye):
    X=   -17.6023    Y=    -6.8544    Z=    -0.0073  Tot=    18.8898
 Quadrupole moment (field-independent basis, Debye-Ang):
   XX=   100.3455   YY=   -78.4343   ZZ=   -91.6089
   XY=   -36.7044   XZ=    -0.0540   YZ=     0.0219

 Normal termination of Gaussian 03 at Fri Jun 12 17:59:17 2015.
