 Gaussian 03, Revision E.01,
 Gaussian 03:  EM64T-G03RevE.01 11-Sep-2007

 ----------------------------------------------------
 # b3lyp/6-31+G(d,p) int=ultrafine pop=(ReadRadii,MK)
 ----------------------------------------------------

 ----------------------------------------
 mol_17.27.1.pdbcccc_plusQ.z58487.zip.xyz
 ----------------------------------------
 Symbolic Z-matrix:
 Charge =  1 Multiplicity = 1

                         Standard orientation:
 ---------------------------------------------------------------------
 Center     Atomic     Atomic              Coordinates (Angstroms)
 Number     Number      Type              X           Y           Z
 ---------------------------------------------------------------------
    1          8             0       -2.484821   -1.285932    0.756171
    2          8             0       -2.481761   -1.256152   -0.776839
    3         15             0       -3.438871    0.006998    0.003391
    4          8             0       -2.470241    1.286188   -0.755029
    5          8             0       -2.459481    1.256078    0.777941
    6         20             0       -0.490521   -0.014481   -0.004929
    7          8             0        1.737619   -0.004201   -0.002289
    8         20             0        3.177940   -1.709070    0.002341
    9         20             0        3.155209    1.719910    0.000061
 ---------------------------------------------------------------------

 SCF Done:  E(RB+HF-LYP) =  -2749.95251696     A.U. after   11 cycles

 The electronic state is 1-A.
 Alpha  occ. eigenvalues -- -145.52642-145.52633-145.50075 -77.33658 -19.34096
 Alpha  occ. eigenvalues --  -19.34039 -19.33841 -19.33805 -19.20509 -15.59631
 Alpha  occ. eigenvalues --  -15.59622 -15.56910 -12.72821 -12.72820 -12.72813
 Alpha  occ. eigenvalues --  -12.72811 -12.72698 -12.72690 -12.70151 -12.70150
 Alpha  occ. eigenvalues --  -12.69972  -6.78527  -4.94923  -4.94644  -4.94409
 Alpha  occ. eigenvalues --   -1.96781  -1.96735  -1.94168  -1.27232  -1.24440
 Alpha  occ. eigenvalues --   -1.24273  -1.24223  -1.24147  -1.24029  -1.23494
 Alpha  occ. eigenvalues --   -1.23453  -1.21905  -1.20617  -1.20288  -0.99623
 Alpha  occ. eigenvalues --   -0.96526  -0.95428  -0.74185  -0.61533  -0.59255
 Alpha  occ. eigenvalues --   -0.58063  -0.55708  -0.51700  -0.51337  -0.43557
 Alpha  occ. eigenvalues --   -0.43051  -0.42877  -0.41555  -0.41094  -0.39125
 Alpha  occ. eigenvalues --   -0.38580  -0.28129
 Alpha virt. eigenvalues --   -0.21951  -0.18273  -0.17607  -0.15758  -0.15247
 Alpha virt. eigenvalues --   -0.14905  -0.13855  -0.13125  -0.11451  -0.10832
 Alpha virt. eigenvalues --   -0.09780  -0.09120  -0.08675  -0.08037  -0.06645

 Mulliken atomic charges:
              1
     1  O   -0.381862
     2  O   -0.382725
     3  P    0.831834
     4  O   -0.382036
     5  O   -0.383603
     6  Ca   1.543616
     7  O   -1.099075
     8  Ca   0.625368
     9  Ca   0.628483
 Sum of Mulliken charges=   1.00000

 Dipole moment (field-independent basis, Debye):
    X=    12.3480    Y=    -0.0237    Z=    -0.0131  Tot=    12.3481
 Quadrupole moment (field-independent basis, Debye-Ang):
   XX=   -47.9260   YY=   -65.3556   ZZ=   -87.2796
   XY=    -0.1174   XZ=     0.0237   YZ=    -0.0635

 Normal termination of Gaussian 03 at Fri Jun 12 18:06:54 2015.
