 Gaussian 03, Revision E.01,
 Gaussian 03:  EM64T-G03RevE.01 11-Sep-2007

 ----------------------------------------------------
 # b3lyp/6-31+G(d,p) int=ultrafine pop=(ReadRadii,MK)
 ----------------------------------------------------

 --------------------------------------
 mol_17.23.41.pdbc_plusQ.z58242.zip.xyz
 --------------------------------------
 Symbolic Z-matrix:
 Charge =  1 Multiplicity = 1

                         Standard orientation:
 ---------------------------------------------------------------------
 Center     Atomic     Atomic              Coordinates (Angstroms)
 Number     Number      Type              X           Y           Z
 ---------------------------------------------------------------------
    1          8             0        4.287980   -0.047539    1.208280
    2         15             0        3.535690   -0.745729    0.139370
    3          8             0        2.030840    0.052830    0.114530
    4          8             0        1.217310   -0.329730   -1.089480
    5         20             0       -0.948130   -1.297830   -0.433800
    6          8             0       -2.996460   -1.624471    0.163380
    7         20             0       -3.497760    0.406569    0.572680
    8          8             0       -1.403211    1.006380    0.000000
    9         20             0        0.539539    1.827570   -0.402090
 ---------------------------------------------------------------------

 SCF Done:  E(RB+HF-LYP) =  -2750.08915876     A.U. after   11 cycles

 The electronic state is 1-A.
 Alpha  occ. eigenvalues -- -145.53213-145.47015-145.45591 -77.31020 -19.36979
 Alpha  occ. eigenvalues --  -19.30568 -19.28828 -19.16995 -19.10529 -15.60022
 Alpha  occ. eigenvalues --  -15.53916 -15.52534 -12.73261 -12.73209 -12.73117
 Alpha  occ. eigenvalues --  -12.67158 -12.67072 -12.66995 -12.65807 -12.65714
 Alpha  occ. eigenvalues --  -12.65573  -6.76904  -4.93232  -4.93190  -4.92637
 Alpha  occ. eigenvalues --   -1.97167  -1.91202  -1.89932  -1.25938  -1.24830
 Alpha  occ. eigenvalues --   -1.24191  -1.20961  -1.19070  -1.18815  -1.18157
 Alpha  occ. eigenvalues --   -1.18009  -1.17323  -1.16637  -1.12832  -0.98326
 Alpha  occ. eigenvalues --   -0.91754  -0.84524  -0.70413  -0.59346  -0.57572
 Alpha  occ. eigenvalues --   -0.57097  -0.48965  -0.48367  -0.44220  -0.41562
 Alpha  occ. eigenvalues --   -0.40656  -0.38014  -0.36639  -0.35773  -0.30078
 Alpha  occ. eigenvalues --   -0.28627  -0.28305
 Alpha virt. eigenvalues --   -0.21818  -0.21183  -0.18164  -0.17015  -0.14243
 Alpha virt. eigenvalues --   -0.12573  -0.11861  -0.10411  -0.10044  -0.09910
 Alpha virt. eigenvalues --   -0.08751  -0.08500  -0.07475  -0.07030  -0.06595

 Mulliken atomic charges:
              1
     1  O   -0.486419
     2  P    0.780908
     3  O   -0.455508
     4  O   -0.553649
     5  Ca   1.314654
     6  O   -1.128796
     7  Ca   1.338382
     8  O   -1.305916
     9  Ca   1.496344
 Sum of Mulliken charges=   1.00000

 Dipole moment (field-independent basis, Debye):
    X=    -2.7114    Y=     9.4832    Z=    -1.8234  Tot=    10.0304
 Quadrupole moment (field-independent basis, Debye-Ang):
   XX=   -57.3719   YY=   -58.0783   ZZ=   -76.6006
   XY=   -21.2391   XZ=   -14.8578   YZ=    -0.1914

 Normal termination of Gaussian 03 at Fri Jun 12 17:53:52 2015.
