 Gaussian 03, Revision E.01,
 Gaussian 03:  EM64T-G03RevE.01 11-Sep-2007

 ----------------------------------------------------
 # b3lyp/6-31+G(d,p) int=ultrafine pop=(ReadRadii,MK)
 ----------------------------------------------------

 ----------------------------------------
 mol_16.4.8.pdbc_plusQ.out.z51613.zip.xyz
 ----------------------------------------
 Symbolic Z-matrix:
 Charge =  1 Multiplicity = 1

                         Standard orientation:
 ---------------------------------------------------------------------
 Center     Atomic     Atomic              Coordinates (Angstroms)
 Number     Number      Type              X           Y           Z
 ---------------------------------------------------------------------
    1          8             0       -1.443936    1.271816   -0.000899
    2         15             0       -2.319851   -0.002774    0.000041
    3          8             0       -1.440717   -1.275164    0.000791
    4         20             0        0.764099   -1.857300   -0.000599
    5          8             0        1.712148    0.002001    0.787061
    6          8             0        1.714308    0.002271   -0.785309
    7         20             0        0.759068    1.859010   -0.000089
 ---------------------------------------------------------------------

 SCF Done:  E(RB+HF-LYP) =  -1997.33372438     A.U. after    6 cycles

 The electronic state is 1-A.
 Alpha  occ. eigenvalues -- -145.53247-145.53244 -77.30160 -19.27964 -19.27939
 Alpha  occ. eigenvalues --  -19.25625 -19.25549 -15.60094 -15.60091 -12.73309
 Alpha  occ. eigenvalues --  -12.73305 -12.73291 -12.73287 -12.73208 -12.73204
 Alpha  occ. eigenvalues --   -6.75642  -4.92082  -4.91866  -4.91422  -1.97236
 Alpha  occ. eigenvalues --   -1.97209  -1.25765  -1.24805  -1.24792  -1.24725
 Alpha  occ. eigenvalues --   -1.24724  -1.24302  -1.13924  -1.08555  -1.08251
 Alpha  occ. eigenvalues --   -0.89520  -0.67704  -0.57281  -0.52823  -0.52600
 Alpha  occ. eigenvalues --   -0.48993  -0.47945  -0.46120  -0.45762  -0.43901
 Alpha  occ. eigenvalues --   -0.40699  -0.37190  -0.34166
 Alpha virt. eigenvalues --   -0.20456  -0.19851  -0.19631  -0.14480  -0.11367
 Alpha virt. eigenvalues --   -0.11280  -0.10319  -0.09666  -0.09042  -0.07375
 Alpha virt. eigenvalues --   -0.07215  -0.06431  -0.05961  -0.05215  -0.04857

 Mulliken atomic charges:
              1
     1  O   -0.709941
     2  P    0.668667
     3  O   -0.709616
     4  Ca   1.544009
     5  O   -0.669228
     6  O   -0.667865
     7  Ca   1.543974
 Sum of Mulliken charges=   1.00000

 Dipole moment (field-independent basis, Debye):
    X=     3.1420    Y=    -0.0005    Z=    -0.0156  Tot=     3.1420
 Quadrupole moment (field-independent basis, Debye-Ang):
   XX=   -66.5036   YY=    -8.8826   ZZ=   -58.2533
   XY=    -0.0751   XZ=    -0.0194   YZ=     0.0165

 Normal termination of Gaussian 03 at Fri Jun 12 17:48:59 2015.
