 Gaussian 03, Revision E.01,
 Gaussian 03:  EM64T-G03RevE.01 11-Sep-2007

 ----------------------------------------------------
 # b3lyp/6-31+G(d,p) int=ultrafine pop=(ReadRadii,MK)
 ----------------------------------------------------

 -----------------------------------------
 mol_17.29.11.pdbcccc_plusQ.z58591.zip.xyz
 -----------------------------------------
 Symbolic Z-matrix:
 Charge =  1 Multiplicity = 1

                         Standard orientation:
 ---------------------------------------------------------------------
 Center     Atomic     Atomic              Coordinates (Angstroms)
 Number     Number      Type              X           Y           Z
 ---------------------------------------------------------------------
    1          8             0       -2.192167   -1.733603   -0.007129
    2          8             0        2.107173   -2.071998    0.004331
    3         20             0        3.360871   -0.360796   -0.006589
    4         15             0       -3.381669   -0.806484   -0.007999
    5          8             0       -2.824710    0.734036    0.002881
    6          8             0       -1.385201    0.865438    0.009791
    7          8             0        1.544159    0.962702   -0.001459
    8         20             0        0.163712   -1.084430    0.009841
    9         20             0        0.111967    2.547460   -0.000619
 ---------------------------------------------------------------------

 SCF Done:  E(RB+HF-LYP) =  -2750.11385605     A.U. after   11 cycles

 The electronic state is 1-A.
 Alpha  occ. eigenvalues -- -145.53567-145.45872-145.42805 -77.31550 -19.36449
 Alpha  occ. eigenvalues --  -19.30511 -19.29251 -19.16794 -19.09672 -15.60390
 Alpha  occ. eigenvalues --  -15.52780 -15.49710 -12.73634 -12.73560 -12.73488
 Alpha  occ. eigenvalues --  -12.66020 -12.65936 -12.65856 -12.63000 -12.62883
 Alpha  occ. eigenvalues --  -12.62763  -6.77305  -4.93637  -4.93596  -4.93063
 Alpha  occ. eigenvalues --   -1.97521  -1.90112  -1.87100  -1.25490  -1.25250
 Alpha  occ. eigenvalues --   -1.24439  -1.23144  -1.17988  -1.17624  -1.17079
 Alpha  occ. eigenvalues --   -1.15287  -1.15066  -1.14237  -1.12453  -0.98733
 Alpha  occ. eigenvalues --   -0.91244  -0.83529  -0.70282  -0.60829  -0.58557
 Alpha  occ. eigenvalues --   -0.56765  -0.49372  -0.48861  -0.44587  -0.41778
 Alpha  occ. eigenvalues --   -0.39987  -0.37519  -0.36189  -0.35143  -0.29031
 Alpha  occ. eigenvalues --   -0.27619  -0.27273
 Alpha virt. eigenvalues --   -0.22148  -0.21278  -0.17560  -0.15001  -0.13666
 Alpha virt. eigenvalues --   -0.13097  -0.11982  -0.09833  -0.09353  -0.08442
 Alpha virt. eigenvalues --   -0.07720  -0.07529  -0.07110  -0.06577  -0.06192

 Mulliken atomic charges:
              1
     1  O   -0.643347
     2  O   -1.115691
     3  Ca   1.327052
     4  P    0.774784
     5  O   -0.311512
     6  O   -0.566623
     7  O   -1.272903
     8  Ca   1.348033
     9  Ca   1.460207
 Sum of Mulliken charges=   1.00000

 Dipole moment (field-independent basis, Debye):
    X=     3.6121    Y=    13.3654    Z=    -0.0310  Tot=    13.8449
 Quadrupole moment (field-independent basis, Debye-Ang):
   XX=   -33.6148   YY=   -59.3176   ZZ=   -74.6904
   XY=    13.5417   XZ=    -0.1287   YZ=    -0.0591

 Normal termination of Gaussian 03 at Fri Jun 12 18:11:47 2015.
