 Gaussian 03, Revision E.01,
 Gaussian 03:  EM64T-G03RevE.01 11-Sep-2007

 ----------------------------------------------------
 # b3lyp/6-31+G(d,p) int=ultrafine pop=(ReadRadii,MK)
 ----------------------------------------------------

 ------------------------------------------
 mol_16.4.12.pdbcc_plusQ.out.z51563.zip.xyz
 ------------------------------------------
 Symbolic Z-matrix:
 Charge =  1 Multiplicity = 1

                         Standard orientation:
 ---------------------------------------------------------------------
 Center     Atomic     Atomic              Coordinates (Angstroms)
 Number     Number      Type              X           Y           Z
 ---------------------------------------------------------------------
    1          8             0       -1.381429    1.464784   -0.001329
    2          8             0        1.382541    1.462369    0.000241
    3         15             0       -0.000210    0.799101    0.000091
    4          8             0        0.000308   -0.331219   -1.196289
    5          8             0       -0.001492   -0.329879    1.197571
    6         20             0        2.069878   -0.752682   -0.000079
    7         20             0       -2.069692   -0.753065   -0.000069
 ---------------------------------------------------------------------

 SCF Done:  E(RB+HF-LYP) =  -1997.39007761     A.U. after    8 cycles

 The electronic state is 1-A.
 Alpha  occ. eigenvalues -- -145.57693-145.57683 -77.31329 -19.22628 -19.22593
 Alpha  occ. eigenvalues --  -19.22312 -19.22267 -15.64395 -15.64385 -12.77594
 Alpha  occ. eigenvalues --  -12.77585 -12.77582 -12.77580 -12.77572 -12.77570
 Alpha  occ. eigenvalues --   -6.76050  -4.92398  -4.92391  -4.92315  -2.01223
 Alpha  occ. eigenvalues --   -2.01212  -1.29331  -1.28816  -1.28436  -1.28436
 Alpha  occ. eigenvalues --   -1.28380  -1.28332  -1.12992  -1.05497  -1.03665
 Alpha  occ. eigenvalues --   -1.01684  -0.62398  -0.53176  -0.53145  -0.52459
 Alpha  occ. eigenvalues --   -0.45693  -0.45589  -0.45186  -0.42427  -0.40460
 Alpha  occ. eigenvalues --   -0.39280  -0.37994  -0.35882
 Alpha virt. eigenvalues --   -0.23652  -0.22441  -0.14867  -0.13485  -0.12799
 Alpha virt. eigenvalues --   -0.12505  -0.10777  -0.08513  -0.07909  -0.06634
 Alpha virt. eigenvalues --   -0.05355  -0.05333  -0.04645  -0.04455  -0.04312

 Mulliken atomic charges:
              1
     1  O   -0.825844
     2  O   -0.826432
     3  P    1.722746
     4  O   -1.018146
     5  O   -1.018278
     6  Ca   1.482998
     7  Ca   1.482957
 Sum of Mulliken charges=   1.00000

 Dipole moment (field-independent basis, Debye):
    X=     0.0010    Y=   -13.9740    Z=    -0.0039  Tot=    13.9740
 Quadrupole moment (field-independent basis, Debye-Ang):
   XX=     3.5425   YY=   -55.5608   ZZ=   -66.7937
   XY=     0.0070   XZ=     0.0015   YZ=     0.0014

 Normal termination of Gaussian 03 at Fri Jun 12 17:46:36 2015.
