 Gaussian 03, Revision E.01,
 Gaussian 03:  EM64T-G03RevE.01 11-Sep-2007

 ----------------------------------------------------
 # b3lyp/6-31+G(d,p) int=ultrafine pop=(ReadRadii,MK)
 ----------------------------------------------------

 ----------------------------------------
 mol_17.23.27.pdbccc_plusQ.z58228.zip.xyz
 ----------------------------------------
 Symbolic Z-matrix:
 Charge =  1 Multiplicity = 1

                         Standard orientation:
 ---------------------------------------------------------------------
 Center     Atomic     Atomic              Coordinates (Angstroms)
 Number     Number      Type              X           Y           Z
 ---------------------------------------------------------------------
    1         20             0       -3.055480   -0.483471    0.000000
    2          8             0       -2.432580    1.679599    0.000000
    3         15             0        0.000000    1.340319    0.000000
    4          8             0       -1.184560    2.430319    0.000000
    5          8             0        1.340780    2.080159    0.000000
    6         20             0        3.218380    0.719119    0.000000
    7          8             0        2.241130   -1.139641    0.000000
    8         20             0        0.498820   -2.446851    0.000000
    9          8             0       -1.619070   -2.035521    0.000000
 ---------------------------------------------------------------------

 SCF Done:  E(RB+HF-LYP) =  -2750.06878445     A.U. after   10 cycles

 The electronic state is 1-A'.
 Alpha  occ. eigenvalues -- -145.51757-145.48289-145.43753 -77.30407 -19.34874
 Alpha  occ. eigenvalues --  -19.28942 -19.25774 -19.13845 -19.12138 -15.58602
 Alpha  occ. eigenvalues --  -15.55179 -15.50776 -12.71850 -12.71778 -12.71684
 Alpha  occ. eigenvalues --  -12.68426 -12.68377 -12.68236 -12.64038 -12.64002
 Alpha  occ. eigenvalues --  -12.63757  -6.76152  -4.92477  -4.92395  -4.91954
 Alpha  occ. eigenvalues --   -1.95743  -1.92406  -1.88236  -1.23518  -1.23448
 Alpha  occ. eigenvalues --   -1.22595  -1.21574  -1.20228  -1.19776  -1.19118
 Alpha  occ. eigenvalues --   -1.16295  -1.16086  -1.15002  -1.12334  -0.94587
 Alpha  occ. eigenvalues --   -0.87986  -0.86087  -0.68942  -0.58242  -0.56733
 Alpha  occ. eigenvalues --   -0.54653  -0.49841  -0.48645  -0.42092  -0.37375
 Alpha  occ. eigenvalues --   -0.35439  -0.34746  -0.32152  -0.32096  -0.31832
 Alpha  occ. eigenvalues --   -0.30415  -0.30183
 Alpha virt. eigenvalues --   -0.21139  -0.20130  -0.17516  -0.14599  -0.11987
 Alpha virt. eigenvalues --   -0.11521  -0.10069  -0.09598  -0.09597  -0.08567
 Alpha virt. eigenvalues --   -0.08095  -0.07464  -0.06505  -0.05820  -0.05509

 Mulliken atomic charges:
              1
     1  Ca   1.426151
     2  O   -0.544952
     3  P    0.685925
     4  O   -0.206276
     5  O   -0.705375
     6  Ca   1.458315
     7  O   -1.249941
     8  Ca   1.388714
     9  O   -1.252560
 Sum of Mulliken charges=   1.00000

 Dipole moment (field-independent basis, Debye):
    X=     4.9717    Y=    -2.4752    Z=     0.0000  Tot=     5.5538
 Quadrupole moment (field-independent basis, Debye-Ang):
   XX=     1.7367   YY=   -77.6743   ZZ=   -74.4127
   XY=    19.9070   XZ=     0.0000   YZ=     0.0000

 Normal termination of Gaussian 03 at Fri Jun 12 17:52:30 2015.
