 Gaussian 03, Revision E.01,
 Gaussian 03:  EM64T-G03RevE.01 11-Sep-2007

 ----------------------------------------------------
 # b3lyp/6-31+G(d,p) int=ultrafine pop=(ReadRadii,MK)
 ----------------------------------------------------

 ---------------------------------------
 mol_17.23.35.pdbcc_plusQ.z58236.zip.xyz
 ---------------------------------------
 Symbolic Z-matrix:
 Charge =  1 Multiplicity = 1

                         Standard orientation:
 ---------------------------------------------------------------------
 Center     Atomic     Atomic              Coordinates (Angstroms)
 Number     Number      Type              X           Y           Z
 ---------------------------------------------------------------------
    1          8             0       -3.091580   -0.107301    0.004841
    2         15             0       -2.903469   -1.681921    0.000651
    3         20             0        0.197281   -1.187381   -0.006229
    4          8             0        2.162271   -0.759760    1.202501
    5          8             0        2.994731   -1.076870    0.009031
    6          8             0        2.175381   -0.764910   -1.194859
    7         20             0        2.283520    1.205480    0.000071
    8          8             0        0.033350    1.200549   -0.010519
    9         20             0       -2.012860    1.846659    0.001271
 ---------------------------------------------------------------------

 SCF Done:  E(RB+HF-LYP) =  -2750.01360258     A.U. after    8 cycles

 The electronic state is 1-A.
 Alpha  occ. eigenvalues -- -145.53899-145.49169-145.46545 -77.24097 -19.32961
 Alpha  occ. eigenvalues --  -19.28300 -19.23734 -19.23723 -19.17923 -15.60775
 Alpha  occ. eigenvalues --  -15.55975 -15.53458 -12.74029 -12.73946 -12.73850
 Alpha  occ. eigenvalues --  -12.69177 -12.69170 -12.69099 -12.66680 -12.66640
 Alpha  occ. eigenvalues --  -12.66556  -6.70431  -4.87186  -4.86630  -4.85730
 Alpha  occ. eigenvalues --   -1.97973  -1.93193  -1.90785  -1.25792  -1.25565
 Alpha  occ. eigenvalues --   -1.24883  -1.23189  -1.20677  -1.20482  -1.18546
 Alpha  occ. eigenvalues --   -1.18527  -1.18195  -1.15515  -1.09753  -0.99763
 Alpha  occ. eigenvalues --   -0.92674  -0.84138  -0.66590  -0.54024  -0.51512
 Alpha  occ. eigenvalues --   -0.51078  -0.50192  -0.48894  -0.48102  -0.39902
 Alpha  occ. eigenvalues --   -0.39308  -0.38136  -0.36814  -0.36655  -0.35623
 Alpha  occ. eigenvalues --   -0.31437  -0.28875
 Alpha virt. eigenvalues --   -0.23554  -0.22086  -0.18145  -0.13766  -0.13758
 Alpha virt. eigenvalues --   -0.12878  -0.11691  -0.10279  -0.09650  -0.08894
 Alpha virt. eigenvalues --   -0.08412  -0.07966  -0.07338  -0.06190  -0.05887

 Mulliken atomic charges:
              1
     1  O   -0.625605
     2  P    0.073607
     3  Ca   1.229858
     4  O   -0.602958
     5  O   -0.094154
     6  O   -0.602831
     7  Ca   1.431448
     8  O   -1.324987
     9  Ca   1.515621
 Sum of Mulliken charges=   1.00000

 Dipole moment (field-independent basis, Debye):
    X=    -3.9525    Y=    12.7922    Z=    -0.0065  Tot=    13.3889
 Quadrupole moment (field-independent basis, Debye-Ang):
   XX=   -65.2039   YY=   -42.8941   ZZ=   -82.6455
   XY=     0.6392   XZ=    -0.0006   YZ=     0.1511

 Normal termination of Gaussian 03 at Fri Jun 12 17:52:56 2015.
