 Gaussian 03, Revision E.01,
 Gaussian 03:  EM64T-G03RevE.01 11-Sep-2007

 ----------------------------------------------------
 # b3lyp/6-31+G(d,p) int=ultrafine pop=(ReadRadii,MK)
 ----------------------------------------------------

 ------------------------------------------
 mol_16.4.19.pdbc_plusQc.out.z51570.zip.xyz
 ------------------------------------------
 Symbolic Z-matrix:
 Charge =  1 Multiplicity = 1

                         Standard orientation:
 ---------------------------------------------------------------------
 Center     Atomic     Atomic              Coordinates (Angstroms)
 Number     Number      Type              X           Y           Z
 ---------------------------------------------------------------------
    1          8             0       -0.627930   -0.754980   -0.010647
    2         15             0       -2.095560   -1.325149   -0.001827
    3         20             0       -4.034959    0.970182    0.008043
    4         20             0        1.590580   -0.435630   -0.011217
    5          8             0        3.876140   -0.491181    0.035333
    6          8             0        4.006191    0.878109    0.013023
    7          8             0        2.785721    1.516329   -0.026347
 ---------------------------------------------------------------------

 SCF Done:  E(RB+HF-LYP) =  -1997.01197826     A.U. after   20 cycles

 The electronic state is 1-A.
 Alpha  occ. eigenvalues -- -145.60057-145.52000 -77.26906 -19.39951 -19.30079
 Alpha  occ. eigenvalues --  -19.28088 -19.28047 -15.67050 -15.58827 -12.80217
 Alpha  occ. eigenvalues --  -12.80203 -12.80167 -12.72104 -12.72041 -12.71872
 Alpha  occ. eigenvalues --   -6.73160  -4.89360  -4.89268  -4.89133  -2.03987
 Alpha  occ. eigenvalues --   -1.96022  -1.31365  -1.31277  -1.30895  -1.29219
 Alpha  occ. eigenvalues --   -1.23915  -1.23655  -1.22592  -1.11896  -1.05905
 Alpha  occ. eigenvalues --   -0.84231  -0.69197  -0.60343  -0.56839  -0.56105
 Alpha  occ. eigenvalues --   -0.52657  -0.51042  -0.50719  -0.40057  -0.39819
 Alpha  occ. eigenvalues --   -0.39051  -0.33400  -0.29131
 Alpha virt. eigenvalues --   -0.27241  -0.25594  -0.19087  -0.17259  -0.16922
 Alpha virt. eigenvalues --   -0.14723  -0.12154  -0.10930  -0.10298  -0.08844
 Alpha virt. eigenvalues --   -0.06957  -0.06338  -0.06199  -0.06049  -0.05406

 Mulliken atomic charges:
              1
     1  O   -0.577558
     2  P    0.028902
     3  Ca   0.875747
     4  Ca   1.394072
     5  O   -0.436229
     6  O    0.160831
     7  O   -0.445765
 Sum of Mulliken charges=   1.00000

 Dipole moment (field-independent basis, Debye):
    X=   -17.0567    Y=     1.6708    Z=    -0.0362  Tot=    17.1384
 Quadrupole moment (field-independent basis, Debye-Ang):
   XX=   -10.4270   YY=   -60.1730   ZZ=   -60.3698
   XY=   -30.2635   XZ=    -0.4174   YZ=     0.2095

 Normal termination of Gaussian 03 at Fri Jun 12 17:48:57 2015.
