 Gaussian 03, Revision E.01,
 Gaussian 03:  EM64T-G03RevE.01 11-Sep-2007

 ----------------------------------------------------
 # b3lyp/6-31+G(d,p) int=ultrafine pop=(ReadRadii,MK)
 ----------------------------------------------------

 --------------------------------------
 mol_17.23.33.pdbc_plusQ.z58234.zip.xyz
 --------------------------------------
 Symbolic Z-matrix:
 Charge =  1 Multiplicity = 1

                         Standard orientation:
 ---------------------------------------------------------------------
 Center     Atomic     Atomic              Coordinates (Angstroms)
 Number     Number      Type              X           Y           Z
 ---------------------------------------------------------------------
    1          8             0       -1.309921   -2.498541    0.000000
    2         15             0       -1.305721   -0.959671    0.000000
    3          8             0       -2.613860   -0.139130    0.000000
    4         20             0       -1.930040    2.145120    0.000000
    5          8             0        0.308950    2.718759    0.000000
    6          8             0        0.000000    1.194869    0.000000
    7          8             0        2.518109   -1.023992    0.000000
    8         20             0        2.200140    1.118668    0.000000
    9         20             0        1.147879   -2.644821    0.000000
 ---------------------------------------------------------------------

 SCF Done:  E(RB+HF-LYP) =  -2750.13357413     A.U. after   10 cycles

 The electronic state is 1-A'.
 Alpha  occ. eigenvalues -- -145.53130-145.49944-145.45490 -77.27355 -19.26249
 Alpha  occ. eigenvalues --  -19.26052 -19.23349 -19.23116 -19.11533 -15.59914
 Alpha  occ. eigenvalues --  -15.56817 -15.52378 -12.73186 -12.73076 -12.73020
 Alpha  occ. eigenvalues --  -12.70068 -12.70037 -12.69859 -12.65650 -12.65559
 Alpha  occ. eigenvalues --  -12.65427  -6.72953  -4.89344  -4.89168  -4.88800
 Alpha  occ. eigenvalues --   -1.96940  -1.93924  -1.89674  -1.24779  -1.24743
 Alpha  occ. eigenvalues --   -1.24028  -1.21742  -1.21681  -1.20585  -1.17708
 Alpha  occ. eigenvalues --   -1.17665  -1.16587  -1.11556  -1.07233  -1.06393
 Alpha  occ. eigenvalues --   -0.87002  -0.85662  -0.64352  -0.53136  -0.52583
 Alpha  occ. eigenvalues --   -0.50292  -0.46718  -0.46439  -0.44231  -0.43754
 Alpha  occ. eigenvalues --   -0.43582  -0.35544  -0.34756  -0.31901  -0.31226
 Alpha  occ. eigenvalues --   -0.29797  -0.29514
 Alpha virt. eigenvalues --   -0.19998  -0.17690  -0.17322  -0.15028  -0.11892
 Alpha virt. eigenvalues --   -0.10336  -0.10271  -0.09999  -0.09111  -0.08531
 Alpha virt. eigenvalues --   -0.08204  -0.06885  -0.06467  -0.05836  -0.05330

 Mulliken atomic charges:
              1
     1  O   -0.581369
     2  P    0.576826
     3  O   -0.751217
     4  Ca   1.533471
     5  O   -0.751885
     6  O   -0.638413
     7  O   -1.220841
     8  Ca   1.422113
     9  Ca   1.411315
 Sum of Mulliken charges=   1.00000

 Dipole moment (field-independent basis, Debye):
    X=    -0.7727    Y=     3.5918    Z=     0.0000  Tot=     3.6740
 Quadrupole moment (field-independent basis, Debye-Ang):
   XX=   -60.2095   YY=   -29.5341   ZZ=   -73.8940
   XY=   -27.7577   XZ=     0.0000   YZ=     0.0000

 Normal termination of Gaussian 03 at Fri Jun 12 17:52:43 2015.
