 Gaussian 03, Revision E.01,
 Gaussian 03:  EM64T-G03RevE.01 11-Sep-2007

 ----------------------------------------------------
 # b3lyp/6-31+G(d,p) int=ultrafine pop=(ReadRadii,MK)
 ----------------------------------------------------

 ---------------------------------------
 mol_17.26.37.pdbcc_plusQ.z58448.zip.xyz
 ---------------------------------------
 Symbolic Z-matrix:
 Charge =  1 Multiplicity = 1

                         Standard orientation:
 ---------------------------------------------------------------------
 Center     Atomic     Atomic              Coordinates (Angstroms)
 Number     Number      Type              X           Y           Z
 ---------------------------------------------------------------------
    1         20             0        0.927703   -1.241206   -0.393631
    2          8             0        2.964613   -1.331374    0.853059
    3          8             0        3.315322   -1.118624   -0.359931
    4          8             0        1.973930    0.822525   -0.436691
    5          8             0        1.627950    0.535484    0.937559
    6         20             0        0.374338    2.341073    0.239699
    7         15             0       -1.733690    0.678470   -0.923431
    8          8             0       -1.319878   -0.942529   -0.222011
    9         20             0       -3.426548   -0.794912    0.537709
 ---------------------------------------------------------------------

 SCF Done:  E(RB+HF-LYP) =  -2749.87676780     A.U. after   15 cycles

 The electronic state is 1-A.
 Alpha  occ. eigenvalues -- -145.55201-145.51776-145.47576 -77.16984 -19.33560
 Alpha  occ. eigenvalues --  -19.33158 -19.26963 -19.26950 -19.22318 -15.62083
 Alpha  occ. eigenvalues --  -15.58688 -15.54434 -12.75303 -12.75258 -12.75187
 Alpha  occ. eigenvalues --  -12.71893 -12.71876 -12.71789 -12.67665 -12.67651
 Alpha  occ. eigenvalues --  -12.67518  -6.63553  -4.80061  -4.79522  -4.79320
 Alpha  occ. eigenvalues --   -1.99078  -1.95834  -1.91763  -1.28090  -1.26615
 Alpha  occ. eigenvalues --   -1.26322  -1.26266  -1.24097  -1.23354  -1.22952
 Alpha  occ. eigenvalues --   -1.20216  -1.19431  -1.18518  -1.12863  -1.00734
 Alpha  occ. eigenvalues --   -0.88104  -0.85359  -0.62670  -0.57424  -0.55772
 Alpha  occ. eigenvalues --   -0.54550  -0.50726  -0.48596  -0.45842  -0.44855
 Alpha  occ. eigenvalues --   -0.43639  -0.42333  -0.35836  -0.33233  -0.32029
 Alpha  occ. eigenvalues --   -0.30121  -0.27449
 Alpha virt. eigenvalues --   -0.22987  -0.22578  -0.19067  -0.16113  -0.14671
 Alpha virt. eigenvalues --   -0.13751  -0.12588  -0.11141  -0.10819  -0.09306
 Alpha virt. eigenvalues --   -0.07820  -0.07458  -0.07330  -0.06168  -0.05753

 Mulliken atomic charges:
              1
     1  Ca   1.404895
     2  O   -0.139540
     3  O   -0.145237
     4  O   -0.520611
     5  O   -0.485258
     6  Ca   1.208366
     7  P   -0.715220
     8  O   -0.839854
     9  Ca   1.232459
 Sum of Mulliken charges=   1.00000

 Dipole moment (field-independent basis, Debye):
    X=   -11.8973    Y=    -0.2882    Z=     2.9968  Tot=    12.2723
 Quadrupole moment (field-independent basis, Debye-Ang):
   XX=   -56.2552   YY=   -38.5969   ZZ=   -83.5860
   XY=    19.5124   XZ=   -19.1113   YZ=     4.9905

 Normal termination of Gaussian 03 at Fri Jun 12 18:01:49 2015.
