 Gaussian 03, Revision E.01,
 Gaussian 03:  EM64T-G03RevE.01 11-Sep-2007

 ----------------------------------------------------
 # b3lyp/6-31+G(d,p) int=ultrafine pop=(ReadRadii,MK)
 ----------------------------------------------------

 ------------------------------------------
 mol_16.4.44.pdbc_plusQc.out.z51594.zip.xyz
 ------------------------------------------
 Symbolic Z-matrix:
 Charge =  1 Multiplicity = 1

                         Standard orientation:
 ---------------------------------------------------------------------
 Center     Atomic     Atomic              Coordinates (Angstroms)
 Number     Number      Type              X           Y           Z
 ---------------------------------------------------------------------
    1          8             0        1.182799   -1.543640    0.006690
    2          8             0       -0.051921   -0.755381    0.010250
    3         15             0        2.554699   -0.676340   -0.004080
    4          8             0        2.181378    0.797730   -0.007200
    5         20             0       -2.355221   -0.984941   -0.002930
    6          8             0       -2.117632    1.111609   -0.005190
    7         20             0       -0.038652    1.648069    0.004170
 ---------------------------------------------------------------------

 SCF Done:  E(RB+HF-LYP) =  -1997.24345552     A.U. after    8 cycles

 The electronic state is 1-A.
 Alpha  occ. eigenvalues -- -145.53179-145.49983 -77.33165 -19.37613 -19.31250
 Alpha  occ. eigenvalues --  -19.31061 -19.14540 -15.60000 -15.56897 -12.73238
 Alpha  occ. eigenvalues --  -12.73170 -12.73103 -12.70162 -12.70092 -12.69941
 Alpha  occ. eigenvalues --   -6.78893  -4.95225  -4.95176  -4.94657  -1.97073
 Alpha  occ. eigenvalues --   -1.94160  -1.25188  -1.24770  -1.23983  -1.23728
 Alpha  occ. eigenvalues --   -1.22093  -1.21497  -1.21129  -1.14493  -0.99932
 Alpha  occ. eigenvalues --   -0.88713  -0.71617  -0.62439  -0.59516  -0.57809
 Alpha  occ. eigenvalues --   -0.50951  -0.50471  -0.46065  -0.42906  -0.40975
 Alpha  occ. eigenvalues --   -0.34585  -0.32686  -0.32615
 Alpha virt. eigenvalues --   -0.22840  -0.21676  -0.18242  -0.15499  -0.13030
 Alpha virt. eigenvalues --   -0.12201  -0.11017  -0.10842  -0.09520  -0.07753
 Alpha virt. eigenvalues --   -0.07441  -0.06874  -0.06253  -0.05611  -0.05418

 Mulliken atomic charges:
              1
     1  O   -0.335281
     2  O   -0.590456
     3  P    0.826808
     4  O   -0.692943
     5  Ca   1.431363
     6  O   -1.099729
     7  Ca   1.460238
 Sum of Mulliken charges=   1.00000

 Dipole moment (field-independent basis, Debye):
    X=    -3.4284    Y=    -2.3519    Z=     0.0142  Tot=     4.1576
 Quadrupole moment (field-independent basis, Debye-Ang):
   XX=   -38.8674   YY=   -39.5096   ZZ=   -55.1865
   XY=    25.5814   XZ=     0.0071   YZ=     0.1757

 Normal termination of Gaussian 03 at Fri Jun 12 17:48:42 2015.
