 Gaussian 03, Revision E.01,
 Gaussian 03:  EM64T-G03RevE.01 11-Sep-2007

 ----------------------------------------------------
 # b3lyp/6-31+G(d,p) int=ultrafine pop=(ReadRadii,MK)
 ----------------------------------------------------

 -----------------------------------------
 mol_17.25.12.pdbcccc_plusQ.z58319.zip.xyz
 -----------------------------------------
 Symbolic Z-matrix:
 Charge =  1 Multiplicity = 1

                         Standard orientation:
 ---------------------------------------------------------------------
 Center     Atomic     Atomic              Coordinates (Angstroms)
 Number     Number      Type              X           Y           Z
 ---------------------------------------------------------------------
    1          8             0       -1.237617   -1.285183   -0.440690
    2          8             0        2.068250   -0.000004    1.103190
    3          8             0        0.608390   -0.000008    1.521280
    4         20             0        1.054074   -1.671827   -0.138380
    5          8             0        0.589980    0.000012   -1.656240
    6         15             0       -1.065350    0.000008   -1.530630
    7         20             0        1.054066    1.671833   -0.138360
    8          8             0       -1.237623    1.285187   -0.440680
    9         20             0       -1.625680   -0.000014    1.389970
 ---------------------------------------------------------------------

 SCF Done:  E(RB+HF-LYP) =  -2750.24881791     A.U. after    7 cycles

 The electronic state is 1-A.
 Alpha  occ. eigenvalues -- -145.52375-145.50180-145.50174 -77.25160 -19.25914
 Alpha  occ. eigenvalues --  -19.25462 -19.21787 -19.21787 -19.21337 -15.59134
 Alpha  occ. eigenvalues --  -15.56978 -15.56974 -12.72322 -12.72318 -12.72292
 Alpha  occ. eigenvalues --  -12.70185 -12.70184 -12.70176 -12.70176 -12.70097
 Alpha  occ. eigenvalues --  -12.70097  -6.70247  -4.86601  -4.86593  -4.86033
 Alpha  occ. eigenvalues --   -1.96314  -1.94230  -1.94164  -1.24342  -1.23871
 Alpha  occ. eigenvalues --   -1.23773  -1.22782  -1.22077  -1.21717  -1.21641
 Alpha  occ. eigenvalues --   -1.21523  -1.21224  -1.10034  -1.07327  -1.00855
 Alpha  occ. eigenvalues --   -1.00733  -0.89079  -0.63098  -0.51346  -0.51080
 Alpha  occ. eigenvalues --   -0.50980  -0.49236  -0.48453  -0.46047  -0.43792
 Alpha  occ. eigenvalues --   -0.43560  -0.38837  -0.38645  -0.38613  -0.35303
 Alpha  occ. eigenvalues --   -0.33992  -0.31705
 Alpha virt. eigenvalues --   -0.20297  -0.18388  -0.17632  -0.12782  -0.12602
 Alpha virt. eigenvalues --   -0.10901  -0.09918  -0.09097  -0.08254  -0.07949
 Alpha virt. eigenvalues --   -0.07349  -0.06562  -0.06018  -0.05817  -0.04928

 Mulliken atomic charges:
              1
     1  O   -1.043808
     2  O   -0.643588
     3  O   -0.725458
     4  Ca   1.462695
     5  O   -1.034847
     6  P    1.083259
     7  Ca   1.462695
     8  O   -1.043807
     9  Ca   1.482861
 Sum of Mulliken charges=   1.00000

 Dipole moment (field-independent basis, Debye):
    X=     0.9438    Y=    -0.0001    Z=     6.2011  Tot=     6.2725
 Quadrupole moment (field-independent basis, Debye-Ang):
   XX=   -63.7412   YY=   -44.2160   ZZ=   -80.5193
   XY=     0.0002   XZ=   -28.3135   YZ=     0.0002

 Normal termination of Gaussian 03 at Fri Jun 12 17:56:59 2015.
