 Gaussian 03, Revision E.01,
 Gaussian 03:  EM64T-G03RevE.01 11-Sep-2007

 ----------------------------------------------------
 # b3lyp/6-31+G(d,p) int=ultrafine pop=(ReadRadii,MK)
 ----------------------------------------------------

 -----------------------------------------
 mol_17.26.38.pdbcccc_plusQ.z58449.zip.xyz
 -----------------------------------------
 Symbolic Z-matrix:
 Charge =  1 Multiplicity = 1

                         Standard orientation:
 ---------------------------------------------------------------------
 Center     Atomic     Atomic              Coordinates (Angstroms)
 Number     Number      Type              X           Y           Z
 ---------------------------------------------------------------------
    1          8             0        2.095731    0.175156   -0.370672
    2          8             0        3.344770   -0.563895   -0.186312
    3          8             0        2.858179   -1.465075    0.750548
    4         15             0        1.072760   -0.738293    0.764428
    5          8             0       -0.187749    0.292999    0.204858
    6          8             0       -3.027810   -0.745708   -0.234562
    7         20             0       -2.435908    1.093371    0.654908
    8         20             0        0.928863    2.287287   -0.578952
    9         20             0       -1.330772   -1.904330   -0.714822
 ---------------------------------------------------------------------

 SCF Done:  E(RB+HF-LYP) =  -2749.87675743     A.U. after   14 cycles

 The electronic state is 1-A.
 Alpha  occ. eigenvalues -- -145.54749-145.52114-145.50307 -77.29500 -19.40240
 Alpha  occ. eigenvalues --  -19.36481 -19.31735 -19.27748 -19.14313 -15.61677
 Alpha  occ. eigenvalues --  -15.58967 -15.57220 -12.74886 -12.74834 -12.74787
 Alpha  occ. eigenvalues --  -12.72207 -12.72165 -12.72041 -12.70457 -12.70395
 Alpha  occ. eigenvalues --  -12.70294  -6.74774  -4.91142  -4.90912  -4.90673
 Alpha  occ. eigenvalues --   -1.98721  -1.96063  -1.94436  -1.31628  -1.26260
 Alpha  occ. eigenvalues --   -1.26012  -1.25948  -1.23807  -1.23608  -1.22967
 Alpha  occ. eigenvalues --   -1.22224  -1.21935  -1.21297  -1.11696  -1.07141
 Alpha  occ. eigenvalues --   -0.94216  -0.88535  -0.69371  -0.66538  -0.61109
 Alpha  occ. eigenvalues --   -0.59903  -0.53956  -0.49856  -0.48735  -0.46277
 Alpha  occ. eigenvalues --   -0.45645  -0.38915  -0.37285  -0.34419  -0.32650
 Alpha  occ. eigenvalues --   -0.32375  -0.27701
 Alpha virt. eigenvalues --   -0.24402  -0.20239  -0.19618  -0.15820  -0.15521
 Alpha virt. eigenvalues --   -0.14509  -0.14157  -0.11910  -0.11214  -0.10575
 Alpha virt. eigenvalues --   -0.09875  -0.09016  -0.08044  -0.07845  -0.07288

 Mulliken atomic charges:
              1
     1  O   -0.351589
     2  O    0.026959
     3  O   -0.303874
     4  P    0.300238
     5  O   -0.822554
     6  O   -1.091464
     7  Ca   1.109590
     8  Ca   0.822940
     9  Ca   1.309755
 Sum of Mulliken charges=   1.00000

 Dipole moment (field-independent basis, Debye):
    X=    -3.4322    Y=     3.9715    Z=    -2.2076  Tot=     5.6944
 Quadrupole moment (field-independent basis, Debye-Ang):
   XX=   -93.0954   YY=   -48.0378   ZZ=   -75.4122
   XY=     6.0933   XZ=   -12.2387   YZ=     8.9041

 Normal termination of Gaussian 03 at Fri Jun 12 18:01:54 2015.
