 Gaussian 03, Revision E.01,
 Gaussian 03:  EM64T-G03RevE.01 11-Sep-2007

 ----------------------------------------------------
 # b3lyp/6-31+G(d,p) int=ultrafine pop=(ReadRadii,MK)
 ----------------------------------------------------

 ---------------------------------------
 mol_17.28.48.pdbcc_plusQ.z58572.zip.xyz
 ---------------------------------------
 Symbolic Z-matrix:
 Charge =  1 Multiplicity = 1

                         Standard orientation:
 ---------------------------------------------------------------------
 Center     Atomic     Atomic              Coordinates (Angstroms)
 Number     Number      Type              X           Y           Z
 ---------------------------------------------------------------------
    1          8             0        2.115781    0.143739   -0.063679
    2          8             0        1.550794   -1.012918   -0.881509
    3         15             0       -0.120466   -1.138279   -1.428119
    4          8             0       -0.642228    0.418913   -1.499969
    5          8             0       -0.420365    1.042652    1.405611
    6          8             0       -0.837299   -1.604346   -0.013969
    7         20             0        0.726390    1.915226   -0.334569
    8         20             0       -2.163159    0.235601    0.314371
    9         20             0        0.820445   -0.892334    1.512691
 ---------------------------------------------------------------------

 SCF Done:  E(RB+HF-LYP) =  -2750.21035343     A.U. after    8 cycles

 The electronic state is 1-A.
 Alpha  occ. eigenvalues -- -145.50970-145.50028-145.49666 -77.27051 -19.28848
 Alpha  occ. eigenvalues --  -19.25352 -19.23437 -19.23046 -19.16661 -15.57806
 Alpha  occ. eigenvalues --  -15.56853 -15.56458 -12.71015 -12.70978 -12.70929
 Alpha  occ. eigenvalues --  -12.70046 -12.70035 -12.69990 -12.69678 -12.69620
 Alpha  occ. eigenvalues --  -12.69607  -6.72146  -4.88573  -4.88433  -4.87911
 Alpha  occ. eigenvalues --   -1.95107  -1.94137  -1.93670  -1.23172  -1.22844
 Alpha  occ. eigenvalues --   -1.22456  -1.22337  -1.21694  -1.21424  -1.21270
 Alpha  occ. eigenvalues --   -1.21081  -1.20712  -1.13163  -1.07408  -1.02710
 Alpha  occ. eigenvalues --   -0.93104  -0.91572  -0.65301  -0.55841  -0.52717
 Alpha  occ. eigenvalues --   -0.51418  -0.48525  -0.47298  -0.44393  -0.42327
 Alpha  occ. eigenvalues --   -0.39795  -0.38427  -0.37059  -0.36743  -0.35862
 Alpha  occ. eigenvalues --   -0.34632  -0.32798
 Alpha virt. eigenvalues --   -0.20649  -0.18457  -0.17444  -0.13991  -0.12920
 Alpha virt. eigenvalues --   -0.11314  -0.10746  -0.09643  -0.08859  -0.08053
 Alpha virt. eigenvalues --   -0.07442  -0.06425  -0.06170  -0.05806  -0.05314

 Mulliken atomic charges:
              1
     1  O   -0.620704
     2  O   -0.487628
     3  P    1.074365
     4  O   -1.036769
     5  O   -1.264111
     6  O   -1.033115
     7  Ca   1.494406
     8  Ca   1.422030
     9  Ca   1.451523
 Sum of Mulliken charges=   1.00000

 Dipole moment (field-independent basis, Debye):
    X=    -4.9133    Y=     5.7801    Z=     5.8661  Tot=     9.5897
 Quadrupole moment (field-independent basis, Debye-Ang):
   XX=   -52.0427   YY=   -57.9685   ZZ=   -75.5331
   XY=     2.1673   XZ=     5.9565   YZ=   -22.4146

 Normal termination of Gaussian 03 at Fri Jun 12 18:10:26 2015.
