 Gaussian 03, Revision E.01,
 Gaussian 03:  EM64T-G03RevE.01 11-Sep-2007

 ----------------------------------------------------
 # b3lyp/6-31+G(d,p) int=ultrafine pop=(ReadRadii,MK)
 ----------------------------------------------------

 ---------------------------------------
 mol_17.26.12.pdbcc_plusQ.z58371.zip.xyz
 ---------------------------------------
 Symbolic Z-matrix:
 Charge =  1 Multiplicity = 1

                         Standard orientation:
 ---------------------------------------------------------------------
 Center     Atomic     Atomic              Coordinates (Angstroms)
 Number     Number      Type              X           Y           Z
 ---------------------------------------------------------------------
    1          8             0        0.756377   -1.249581   -0.033820
    2          8             0        0.758451    1.250399   -0.035640
    3         15             0        0.972609    0.001069    1.110460
    4          8             0        2.542909   -0.000153    1.245100
    5         20             0        2.534019   -0.001663   -1.021550
    6         20             0       -1.439968    1.800743   -0.044360
    7          8             0       -2.378391    0.000334   -1.015720
    8          8             0       -2.633061    0.000865    0.531370
    9         20             0       -1.442023   -1.800627   -0.043450
 ---------------------------------------------------------------------

 SCF Done:  E(RB+HF-LYP) =  -2750.19821009     A.U. after    7 cycles

 The electronic state is 1-A.
 Alpha  occ. eigenvalues -- -145.52887-145.49504-145.49496 -77.24301 -19.22794
 Alpha  occ. eigenvalues --  -19.22507 -19.21327 -19.21324 -19.19021 -15.59679
 Alpha  occ. eigenvalues --  -15.56366 -15.56358 -12.72862 -12.72858 -12.72845
 Alpha  occ. eigenvalues --  -12.69593 -12.69584 -12.69567 -12.69559 -12.69456
 Alpha  occ. eigenvalues --  -12.69448  -6.69589  -4.85970  -4.85894  -4.85453
 Alpha  occ. eigenvalues --   -1.96714  -1.93609  -1.93574  -1.24677  -1.23979
 Alpha  occ. eigenvalues --   -1.23940  -1.22275  -1.21280  -1.21228  -1.21052
 Alpha  occ. eigenvalues --   -1.21027  -1.20594  -1.06715  -1.05361  -0.99868
 Alpha  occ. eigenvalues --   -0.99597  -0.86449  -0.61783  -0.49597  -0.49236
 Alpha  occ. eigenvalues --   -0.48396  -0.46090  -0.44983  -0.43562  -0.42567
 Alpha  occ. eigenvalues --   -0.41980  -0.37838  -0.37836  -0.34588  -0.33872
 Alpha  occ. eigenvalues --   -0.32214  -0.31069
 Alpha virt. eigenvalues --   -0.20490  -0.17974  -0.17402  -0.13048  -0.12114
 Alpha virt. eigenvalues --   -0.11133  -0.09670  -0.08664  -0.08334  -0.07573
 Alpha virt. eigenvalues --   -0.06945  -0.06821  -0.06582  -0.06264  -0.05324

 Mulliken atomic charges:
              1
     1  O   -0.972050
     2  O   -0.971760
     3  P    0.803791
     4  O   -0.869845
     5  Ca   1.357277
     6  Ca   1.485061
     7  O   -0.659786
     8  O   -0.658080
     9  Ca   1.485392
 Sum of Mulliken charges=   1.00000

 Dipole moment (field-independent basis, Debye):
    X=     1.3290    Y=    -0.0171    Z=    -8.1482  Tot=     8.2559
 Quadrupole moment (field-independent basis, Debye-Ang):
   XX=   -62.1201   YY=   -36.3265   ZZ=   -75.9307
   XY=    -0.0010   XZ=   -28.8081   YZ=     0.0088

 Normal termination of Gaussian 03 at Fri Jun 12 17:59:28 2015.
