 Gaussian 03, Revision E.01,
 Gaussian 03:  EM64T-G03RevE.01 11-Sep-2007

 ----------------------------------------------------
 # b3lyp/6-31+G(d,p) int=ultrafine pop=(ReadRadii,MK)
 ----------------------------------------------------

 ----------------------------------------
 mol_17.23.59.pdbccc_plusQ.z58259.zip.xyz
 ----------------------------------------
 Symbolic Z-matrix:
 Charge =  1 Multiplicity = 1

                         Standard orientation:
 ---------------------------------------------------------------------
 Center     Atomic     Atomic              Coordinates (Angstroms)
 Number     Number      Type              X           Y           Z
 ---------------------------------------------------------------------
    1          8             0        0.160200    0.000011    0.785960
    2          8             0        0.160160   -0.000139   -0.785850
    3          8             0        4.312510    1.242910   -0.000100
    4         15             0        5.237100    0.000100   -0.000080
    5          8             0        4.312570   -1.242760    0.000000
    6         20             0        2.285480    0.000000    0.000020
    7         20             0       -1.936390   -0.000248    0.000130
    8         20             0       -6.200930    0.000203   -0.000110
    9          8             0       -4.135400   -0.000098    0.000040
 ---------------------------------------------------------------------

 SCF Done:  E(RB+HF-LYP) =  -2750.15714462     A.U. after    9 cycles

 The electronic state is 1-A.
 Alpha  occ. eigenvalues -- -145.59176-145.44308-145.42785 -77.22104 -19.20697
 Alpha  occ. eigenvalues --  -19.20692 -19.20144 -19.20143 -19.17587 -15.65933
 Alpha  occ. eigenvalues --  -15.51286 -15.49706 -12.79154 -12.79153 -12.79017
 Alpha  occ. eigenvalues --  -12.64570 -12.64513 -12.64273 -12.62949 -12.62933
 Alpha  occ. eigenvalues --  -12.62749  -6.67867  -4.84300  -4.84049  -4.83668
 Alpha  occ. eigenvalues --   -2.02794  -1.88759  -1.87097  -1.30307  -1.30305
 Alpha  occ. eigenvalues --   -1.29393  -1.16874  -1.16860  -1.16597  -1.15115
 Alpha  occ. eigenvalues --   -1.14975  -1.14840  -1.06549  -1.02711  -1.00513
 Alpha  occ. eigenvalues --   -0.91598  -0.84464  -0.58775  -0.47525  -0.45970
 Alpha  occ. eigenvalues --   -0.45245  -0.44119  -0.43143  -0.41215  -0.37994
 Alpha  occ. eigenvalues --   -0.37251  -0.35812  -0.35753  -0.35743  -0.33528
 Alpha  occ. eigenvalues --   -0.32650  -0.28753
 Alpha virt. eigenvalues --   -0.26234  -0.16223  -0.16211  -0.15372  -0.12730
 Alpha virt. eigenvalues --   -0.12426  -0.09772  -0.09264  -0.08478  -0.08345
 Alpha virt. eigenvalues --   -0.06346  -0.06004  -0.05584  -0.05569  -0.04794

 Mulliken atomic charges:
              1
     1  O   -0.674946
     2  O   -0.674963
     3  O   -0.633507
     4  P    0.415504
     5  O   -0.633518
     6  Ca   1.486105
     7  Ca   1.388120
     8  Ca   1.499605
     9  O   -1.172401
 Sum of Mulliken charges=   1.00000

 Dipole moment (field-independent basis, Debye):
    X=   -31.9307    Y=     0.0006    Z=    -0.0002  Tot=    31.9307
 Quadrupole moment (field-independent basis, Debye-Ang):
   XX=   121.2204   YY=   -84.6766   ZZ=   -77.6106
   XY=    -0.0087   XZ=     0.0050   YZ=     0.0000

 Normal termination of Gaussian 03 at Fri Jun 12 17:54:00 2015.
