 Gaussian 03, Revision E.01,
 Gaussian 03:  EM64T-G03RevE.01 11-Sep-2007

 ----------------------------------------------------
 # b3lyp/6-31+G(d,p) int=ultrafine pop=(ReadRadii,MK)
 ----------------------------------------------------

 --------------------------------------
 mol_17.22.34.pdbc_plusQ.z58189.zip.xyz
 --------------------------------------
 Symbolic Z-matrix:
 Charge =  1 Multiplicity = 1

                         Standard orientation:
 ---------------------------------------------------------------------
 Center     Atomic     Atomic              Coordinates (Angstroms)
 Number     Number      Type              X           Y           Z
 ---------------------------------------------------------------------
    1          8             0        0.169467   -1.450030    0.923809
    2         15             0       -0.045829   -0.057840    1.763319
    3         20             0        2.034889   -0.776556   -0.273511
    4          8             0        1.158653    0.877847    1.118629
    5          8             0       -2.561839    0.080997    0.390139
    6          8             0       -1.260687    0.754464    0.701829
    7          8             0        0.498431   -0.011321   -1.701241
    8         20             0       -1.283433   -1.228736   -0.923911
    9         20             0        0.081306    1.947890   -0.698331
 ---------------------------------------------------------------------

 SCF Done:  E(RB+HF-LYP) =  -2750.19417631     A.U. after    9 cycles

 The electronic state is 1-A.
 Alpha  occ. eigenvalues -- -145.51676-145.51598-145.48698 -77.27300 -19.29090
 Alpha  occ. eigenvalues --  -19.23574 -19.23489 -19.23301 -19.17353 -15.58488
 Alpha  occ. eigenvalues --  -15.58423 -15.55546 -12.71702 -12.71664 -12.71630
 Alpha  occ. eigenvalues --  -12.71616 -12.71596 -12.71551 -12.68774 -12.68740
 Alpha  occ. eigenvalues --  -12.68640  -6.72398  -4.88804  -4.88689  -4.88156
 Alpha  occ. eigenvalues --   -1.95727  -1.95673  -1.92857  -1.23979  -1.23556
 Alpha  occ. eigenvalues --   -1.23415  -1.23065  -1.23034  -1.22532  -1.21063
 Alpha  occ. eigenvalues --   -1.20532  -1.19962  -1.13354  -1.07578  -1.03120
 Alpha  occ. eigenvalues --   -0.92324  -0.90588  -0.65534  -0.55300  -0.53389
 Alpha  occ. eigenvalues --   -0.51713  -0.49582  -0.46920  -0.44129  -0.42333
 Alpha  occ. eigenvalues --   -0.40303  -0.37802  -0.37636  -0.36830  -0.35227
 Alpha  occ. eigenvalues --   -0.33500  -0.32025
 Alpha virt. eigenvalues --   -0.20905  -0.19069  -0.17410  -0.13459  -0.12276
 Alpha virt. eigenvalues --   -0.11629  -0.10497  -0.10037  -0.08920  -0.08221
 Alpha virt. eigenvalues --   -0.07988  -0.06859  -0.06591  -0.06166  -0.05827

 Mulliken atomic charges:
              1
     1  O   -1.018894
     2  P    1.101625
     3  Ca   1.429046
     4  O   -1.001028
     5  O   -0.569031
     6  O   -0.591005
     7  O   -1.261640
     8  Ca   1.417208
     9  Ca   1.493719
 Sum of Mulliken charges=   1.00000

 Dipole moment (field-independent basis, Debye):
    X=     6.9445    Y=    -0.0822    Z=    -8.5321  Tot=    11.0013
 Quadrupole moment (field-independent basis, Debye-Ang):
   XX=   -58.4124   YY=   -40.8296   ZZ=   -88.3369
   XY=     0.2838   XZ=     9.1203   YZ=    -0.1466

 Normal termination of Gaussian 03 at Fri Jun 12 17:51:00 2015.
