 Gaussian 03, Revision E.01,
 Gaussian 03:  EM64T-G03RevE.01 11-Sep-2007

 ----------------------------------------------------
 # b3lyp/6-31+G(d,p) int=ultrafine pop=(ReadRadii,MK)
 ----------------------------------------------------

 ---------------------------------------
 mol_16.5.6.pdb_plusQ.out.z51631.zip.xyz
 ---------------------------------------
 Symbolic Z-matrix:
 Charge =  1 Multiplicity = 1

                         Standard orientation:
 ---------------------------------------------------------------------
 Center     Atomic     Atomic              Coordinates (Angstroms)
 Number     Number      Type              X           Y           Z
 ---------------------------------------------------------------------
    1          8             0        0.808451   -1.328528   -0.591700
    2          8             0       -1.319949   -0.765917    0.883290
    3         15             0       -0.320008   -0.298568   -0.266540
    4         20             0       -2.990998    0.238403   -0.119260
    5         20             0        2.616222   -0.193609    0.131820
    6          8             0        0.563062    0.914392    0.576970
    7          8             0        1.485392    1.627882   -0.400200
 ---------------------------------------------------------------------

 SCF Done:  E(RB+HF-LYP) =  -1997.22201226     A.U. after    8 cycles

 The electronic state is 1-A.
 Alpha  occ. eigenvalues -- -145.59127-145.53003 -77.27280 -19.28441 -19.22860
 Alpha  occ. eigenvalues --  -19.22276 -19.22185 -15.65934 -15.59835 -12.79162
 Alpha  occ. eigenvalues --  -12.79130 -12.79043 -12.73065 -12.73000 -12.72957
 Alpha  occ. eigenvalues --   -6.72429  -4.88851  -4.88729  -4.88381  -2.02761
 Alpha  occ. eigenvalues --   -1.96924  -1.30259  -1.30044  -1.29869  -1.25058
 Alpha  occ. eigenvalues --   -1.24469  -1.24116  -1.13432  -1.07133  -1.03369
 Alpha  occ. eigenvalues --   -0.90298  -0.63777  -0.54004  -0.51955  -0.51569
 Alpha  occ. eigenvalues --   -0.47650  -0.45815  -0.42170  -0.40917  -0.39634
 Alpha  occ. eigenvalues --   -0.34311  -0.33233  -0.31990
 Alpha virt. eigenvalues --   -0.24491  -0.20086  -0.15119  -0.14740  -0.11972
 Alpha virt. eigenvalues --   -0.11568  -0.10614  -0.08600  -0.08029  -0.07520
 Alpha virt. eigenvalues --   -0.06870  -0.06007  -0.05326  -0.05121  -0.04452

 Mulliken atomic charges:
              1
     1  O   -0.881532
     2  O   -0.639055
     3  P    0.528750
     4  Ca   1.460823
     5  Ca   1.495730
     6  O   -0.386350
     7  O   -0.578364
 Sum of Mulliken charges=   1.00000

 Dipole moment (field-independent basis, Debye):
    X=    -4.3447    Y=    -0.2958    Z=     0.2540  Tot=     4.3621
 Quadrupole moment (field-independent basis, Debye-Ang):
   XX=    47.1255   YY=   -72.3051   ZZ=   -63.4343
   XY=   -17.0336   XZ=    10.2700   YZ=     0.7165

 Normal termination of Gaussian 03 at Fri Jun 12 17:49:45 2015.
