 Gaussian 03, Revision E.01,
 Gaussian 03:  EM64T-G03RevE.01 11-Sep-2007

 ----------------------------------------------------
 # b3lyp/6-31+G(d,p) int=ultrafine pop=(ReadRadii,MK)
 ----------------------------------------------------

 ---------------------------------------
 mol_17.25.29.pdbcc_plusQ.z58334.zip.xyz
 ---------------------------------------
 Symbolic Z-matrix:
 Charge =  1 Multiplicity = 1

                         Standard orientation:
 ---------------------------------------------------------------------
 Center     Atomic     Atomic              Coordinates (Angstroms)
 Number     Number      Type              X           Y           Z
 ---------------------------------------------------------------------
    1          8             0       -2.053255   -1.880577    0.000000
    2          8             0       -2.406601    0.509743    0.000000
    3          8             0       -0.492478    2.266030    0.000000
    4          8             0        0.000000    0.905329    0.000000
    5         15             0       -1.274292   -0.476809    0.000000
    6         20             0        1.268064    3.586787    0.000000
    7          8             0        0.252366   -1.335841    0.000000
    8         20             0       -0.550347   -3.448870    0.000000
    9         20             0        2.117989    0.033816    0.000000
 ---------------------------------------------------------------------

 SCF Done:  E(RB+HF-LYP) =  -2749.96528683     A.U. after   15 cycles

 The electronic state is 1-A'.
 Alpha  occ. eigenvalues -- -145.55071-145.52136-145.50152 -77.31496 -19.28086
 Alpha  occ. eigenvalues --  -19.24310 -19.20986 -19.20960 -19.19255 -15.61900
 Alpha  occ. eigenvalues --  -15.59065 -15.57111 -12.75142 -12.75058 -12.75007
 Alpha  occ. eigenvalues --  -12.72272 -12.72269 -12.72130 -12.70334 -12.70281
 Alpha  occ. eigenvalues --  -12.70182  -6.75830  -4.92503  -4.92033  -4.91900
 Alpha  occ. eigenvalues --   -1.98985  -1.96108  -1.94353  -1.26668  -1.26352
 Alpha  occ. eigenvalues --   -1.26261  -1.23651  -1.23623  -1.23222  -1.22019
 Alpha  occ. eigenvalues --   -1.21965  -1.21608  -1.13243  -1.07959  -1.02933
 Alpha  occ. eigenvalues --   -0.99776  -0.87412  -0.63422  -0.54577  -0.51849
 Alpha  occ. eigenvalues --   -0.50465  -0.50300  -0.44986  -0.43803  -0.43492
 Alpha  occ. eigenvalues --   -0.41152  -0.38095  -0.36820  -0.32857  -0.32385
 Alpha  occ. eigenvalues --   -0.30060  -0.26768
 Alpha virt. eigenvalues --   -0.23724  -0.20204  -0.15774  -0.15044  -0.15023
 Alpha virt. eigenvalues --   -0.13912  -0.12760  -0.12025  -0.10998  -0.10881
 Alpha virt. eigenvalues --   -0.09830  -0.08481  -0.08046  -0.07757  -0.06749

 Mulliken atomic charges:
              1
     1  O   -0.883042
     2  O   -0.722211
     3  O   -0.468288
     4  O   -0.550325
     5  P    1.750796
     6  Ca   0.728396
     7  O   -1.033428
     8  Ca   1.313767
     9  Ca   0.864336
 Sum of Mulliken charges=   1.00000

 Dipole moment (field-independent basis, Debye):
    X=    11.2306    Y=    -6.5437    Z=     0.0000  Tot=    12.9979
 Quadrupole moment (field-independent basis, Debye-Ang):
   XX=   -94.8854   YY=    25.3551   ZZ=   -82.1250
   XY=    19.3567   XZ=     0.0000   YZ=     0.0000

 Normal termination of Gaussian 03 at Fri Jun 12 17:58:25 2015.
