 Gaussian 03, Revision E.01,
 Gaussian 03:  EM64T-G03RevE.01 11-Sep-2007

 ----------------------------------------------------
 # b3lyp/6-31+G(d,p) int=ultrafine pop=(ReadRadii,MK)
 ----------------------------------------------------

 -----------------------------------------
 mol_17.26.58.pdbcccc_plusQ.z58469.zip.xyz
 -----------------------------------------
 Symbolic Z-matrix:
 Charge =  1 Multiplicity = 1

                         Standard orientation:
 ---------------------------------------------------------------------
 Center     Atomic     Atomic              Coordinates (Angstroms)
 Number     Number      Type              X           Y           Z
 ---------------------------------------------------------------------
    1         20             0       -2.823411    1.002179   -0.001191
    2          8             0       -2.725821   -1.080421    0.785269
    3          8             0       -2.725071   -1.081601   -0.784451
    4          8             0       -0.570451    1.104009    0.000079
    5         20             0       -0.611761   -1.306731    0.001109
    6          8             0        1.716929   -1.438540   -0.001211
    7         15             0        3.201739   -1.024540   -0.000631
    8          8             0        3.284209    0.524020   -0.000241
    9         20             0        1.441949    1.861970    0.000779
 ---------------------------------------------------------------------

 SCF Done:  E(RB+HF-LYP) =  -2750.20950714     A.U. after    8 cycles

 The electronic state is 1-A.
 Alpha  occ. eigenvalues -- -145.53332-145.48070-145.45098 -77.29899 -19.27893
 Alpha  occ. eigenvalues --  -19.27589 -19.19850 -19.19845 -19.17715 -15.60231
 Alpha  occ. eigenvalues --  -15.54928 -15.51967 -12.73488 -12.73445 -12.73263
 Alpha  occ. eigenvalues --  -12.68138 -12.68110 -12.68038 -12.65210 -12.65173
 Alpha  occ. eigenvalues --  -12.65045  -6.75462  -4.91905  -4.91672  -4.91240
 Alpha  occ. eigenvalues --   -1.97445  -1.92217  -1.89338  -1.25310  -1.25202
 Alpha  occ. eigenvalues --   -1.24294  -1.20531  -1.19815  -1.19413  -1.17301
 Alpha  occ. eigenvalues --   -1.17175  -1.16856  -1.13824  -1.08271  -1.02437
 Alpha  occ. eigenvalues --   -0.92356  -0.83734  -0.67375  -0.56782  -0.52949
 Alpha  occ. eigenvalues --   -0.52649  -0.45502  -0.43655  -0.43387  -0.41976
 Alpha  occ. eigenvalues --   -0.41086  -0.40836  -0.37897  -0.37199  -0.36333
 Alpha  occ. eigenvalues --   -0.30511  -0.28898
 Alpha virt. eigenvalues --   -0.21200  -0.19827  -0.18035  -0.13629  -0.13388
 Alpha virt. eigenvalues --   -0.11565  -0.10894  -0.10485  -0.08698  -0.08261
 Alpha virt. eigenvalues --   -0.07160  -0.06915  -0.06487  -0.06247  -0.05641

 Mulliken atomic charges:
              1
     1  Ca   1.443760
     2  O   -0.650533
     3  O   -0.650550
     4  O   -1.342687
     5  Ca   1.401128
     6  O   -0.679301
     7  P    0.664200
     8  O   -0.708275
     9  Ca   1.522258
 Sum of Mulliken charges=   1.00000

 Dipole moment (field-independent basis, Debye):
    X=     1.2822    Y=    11.8053    Z=     0.0033  Tot=    11.8748
 Quadrupole moment (field-independent basis, Debye-Ang):
   XX=   -63.6584   YY=   -46.8344   ZZ=   -77.2753
   XY=   -16.6049   XZ=     0.0401   YZ=    -0.0142

 Normal termination of Gaussian 03 at Fri Jun 12 18:02:14 2015.
