 Gaussian 03, Revision E.01,
 Gaussian 03:  EM64T-G03RevE.01 11-Sep-2007

 ----------------------------------------------------
 # b3lyp/6-31+G(d,p) int=ultrafine pop=(ReadRadii,MK)
 ----------------------------------------------------

 ----------------------------------------
 mol_17.27.21.pdbccc_plusQ.z58489.zip.xyz
 ----------------------------------------
 Symbolic Z-matrix:
 Charge =  1 Multiplicity = 1

                         Standard orientation:
 ---------------------------------------------------------------------
 Center     Atomic     Atomic              Coordinates (Angstroms)
 Number     Number      Type              X           Y           Z
 ---------------------------------------------------------------------
    1          8             0       -1.715860   -0.447859   -1.154380
    2          8             0        2.902179   -1.107233   -0.153510
    3         20             0        2.828401    0.920277    0.473680
    4          8             0        0.611541    0.982219    0.000400
    5         20             0       -1.302958    1.903391   -0.408890
    6          8             0       -2.614770    0.391402    1.054840
    7         15             0       -1.973811   -0.754459    0.319340
    8          8             0       -1.315572   -1.969409    0.878860
    9         20             0        0.807909   -1.397471   -0.554780
 ---------------------------------------------------------------------

 SCF Done:  E(RB+HF-LYP) =  -2750.22409188     A.U. after   12 cycles

 The electronic state is 1-A.
 Alpha  occ. eigenvalues -- -145.55018-145.47607-145.46735 -77.37128 -19.30900
 Alpha  occ. eigenvalues --  -19.30847 -19.30658 -19.18387 -19.11096 -15.61799
 Alpha  occ. eigenvalues --  -15.54511 -15.53591 -12.75021 -12.75010 -12.74905
 Alpha  occ. eigenvalues --  -12.67751 -12.67668 -12.67591 -12.66842 -12.66779
 Alpha  occ. eigenvalues --  -12.66673  -6.82492  -4.99086  -4.98601  -4.98571
 Alpha  occ. eigenvalues --   -1.98832  -1.91813  -1.90829  -1.26938  -1.26367
 Alpha  occ. eigenvalues --   -1.25697  -1.20668  -1.19672  -1.19438  -1.18798
 Alpha  occ. eigenvalues --   -1.18622  -1.18149  -1.17511  -1.13067  -1.12241
 Alpha  occ. eigenvalues --   -0.92912  -0.85114  -0.67759  -0.59239  -0.58691
 Alpha  occ. eigenvalues --   -0.58423  -0.52174  -0.49540  -0.48539  -0.48366
 Alpha  occ. eigenvalues --   -0.44658  -0.39037  -0.37854  -0.36629  -0.30687
 Alpha  occ. eigenvalues --   -0.29196  -0.28909
 Alpha virt. eigenvalues --   -0.22755  -0.19704  -0.18653  -0.14495  -0.13326
 Alpha virt. eigenvalues --   -0.13167  -0.12507  -0.10626  -0.09403  -0.08783
 Alpha virt. eigenvalues --   -0.07948  -0.07670  -0.06652  -0.06257  -0.05514

 Mulliken atomic charges:
              1
     1  O   -0.635830
     2  O   -1.115658
     3  Ca   1.356289
     4  O   -1.335280
     5  Ca   1.472184
     6  O   -0.613175
     7  P    1.146194
     8  O   -0.591127
     9  Ca   1.316402
 Sum of Mulliken charges=   1.00000

 Dipole moment (field-independent basis, Debye):
    X=    -0.7978    Y=    12.1096    Z=    -2.5675  Tot=    12.4045
 Quadrupole moment (field-independent basis, Debye-Ang):
   XX=   -65.0032   YY=   -46.1387   ZZ=   -77.1141
   XY=    10.5986   XZ=    14.6765   YZ=     2.4386

 Normal termination of Gaussian 03 at Fri Jun 12 18:07:20 2015.
