 Gaussian 03, Revision E.01,
 Gaussian 03:  EM64T-G03RevE.01 11-Sep-2007

 ----------------------------------------------------
 # b3lyp/6-31+G(d,p) int=ultrafine pop=(ReadRadii,MK)
 ----------------------------------------------------

 -----------------------------------------
 mol_17.28.26.pdbcccc_plusQ.z58549.zip.xyz
 -----------------------------------------
 Symbolic Z-matrix:
 Charge =  1 Multiplicity = 1

                         Standard orientation:
 ---------------------------------------------------------------------
 Center     Atomic     Atomic              Coordinates (Angstroms)
 Number     Number      Type              X           Y           Z
 ---------------------------------------------------------------------
    1          8             0       -3.410961   -0.653350   -0.004349
    2          8             0        0.822509   -0.880081    0.778421
    3         20             0        3.075749   -0.694181   -0.002129
    4         15             0       -3.170481    0.866830   -0.002659
    5         20             0       -1.221832   -1.492400    0.002571
    6          8             0       -1.613021    1.040760    0.004571
    7          8             0        2.874969    1.415789   -0.001479
    8         20             0        0.726219    1.519119    0.001581
    9          8             0        0.820819   -0.879771   -0.777239
 ---------------------------------------------------------------------

 SCF Done:  E(RB+HF-LYP) =  -2750.19922727     A.U. after    8 cycles

 The electronic state is 1-A.
 Alpha  occ. eigenvalues -- -145.53301-145.48100-145.46502 -77.31648 -19.29959
 Alpha  occ. eigenvalues --  -19.29142 -19.27657 -19.27651 -19.10311 -15.60146
 Alpha  occ. eigenvalues --  -15.54937 -15.53361 -12.73382 -12.73378 -12.73212
 Alpha  occ. eigenvalues --  -12.68155 -12.68119 -12.68040 -12.66615 -12.66579
 Alpha  occ. eigenvalues --  -12.66410  -6.77272  -4.93705  -4.93472  -4.93055
 Alpha  occ. eigenvalues --   -1.97331  -1.92134  -1.90670  -1.25314  -1.25144
 Alpha  occ. eigenvalues --   -1.25004  -1.20356  -1.19789  -1.19239  -1.18531
 Alpha  occ. eigenvalues --   -1.18453  -1.17871  -1.15551  -1.10910  -1.09766
 Alpha  occ. eigenvalues --   -0.91291  -0.84520  -0.68931  -0.57899  -0.55271
 Alpha  occ. eigenvalues --   -0.54482  -0.51222  -0.50446  -0.49463  -0.46904
 Alpha  occ. eigenvalues --   -0.45459  -0.42698  -0.38848  -0.36716  -0.30148
 Alpha  occ. eigenvalues --   -0.28563  -0.28510
 Alpha virt. eigenvalues --   -0.21598  -0.19565  -0.17910  -0.15029  -0.15011
 Alpha virt. eigenvalues --   -0.11255  -0.10532  -0.09853  -0.09288  -0.08794
 Alpha virt. eigenvalues --   -0.08672  -0.08136  -0.07318  -0.06844  -0.06403

 Mulliken atomic charges:
              1
     1  O   -0.647243
     2  O   -0.694194
     3  Ca   1.362962
     4  P    0.680048
     5  Ca   1.503089
     6  O   -0.742620
     7  O   -1.123853
     8  Ca   1.356257
     9  O   -0.694446
 Sum of Mulliken charges=   1.00000

 Dipole moment (field-independent basis, Debye):
    X=    -0.3540    Y=    -7.6400    Z=     0.0140  Tot=     7.6482
 Quadrupole moment (field-independent basis, Debye-Ang):
   XX=   -63.4254   YY=   -57.0544   ZZ=   -77.2569
   XY=   -23.1588   XZ=    -0.0569   YZ=    -0.0115

 Normal termination of Gaussian 03 at Fri Jun 12 18:08:55 2015.
