 Gaussian 03, Revision E.01,
 Gaussian 03:  EM64T-G03RevE.01 11-Sep-2007

 ----------------------------------------------------
 # b3lyp/6-31+G(d,p) int=ultrafine pop=(ReadRadii,MK)
 ----------------------------------------------------

 ---------------------------------------
 mol_17.27.19.pdbcc_plusQ.z58486.zip.xyz
 ---------------------------------------
 Symbolic Z-matrix:
 Charge =  1 Multiplicity = 1

                         Standard orientation:
 ---------------------------------------------------------------------
 Center     Atomic     Atomic              Coordinates (Angstroms)
 Number     Number      Type              X           Y           Z
 ---------------------------------------------------------------------
    1          8             0       -2.941650    0.746941   -0.417118
    2          8             0       -2.469720    0.836021    1.075962
    3         20             0       -2.449801   -1.281609    0.366262
    4         20             0       -0.808059    1.499840   -0.314968
    5          8             0        1.427540    0.890749   -0.493238
    6         15             0        1.137309   -0.790411   -0.939568
    7          8             0        2.215469   -1.471882    0.029592
    8         20             0        3.246340    0.345718    0.688132
    9          8             0       -0.335291   -0.929680   -0.282068
 ---------------------------------------------------------------------

 SCF Done:  E(RB+HF-LYP) =  -2750.19794824     A.U. after    7 cycles

 The electronic state is 1-A.
 Alpha  occ. eigenvalues -- -145.54450-145.49713-145.46321 -77.24441 -19.21802
 Alpha  occ. eigenvalues --  -19.21266 -19.20887 -19.20741 -19.20338 -15.61309
 Alpha  occ. eigenvalues --  -15.56511 -15.53229 -12.74541 -12.74447 -12.74439
 Alpha  occ. eigenvalues --  -12.69722 -12.69697 -12.69638 -12.66465 -12.66453
 Alpha  occ. eigenvalues --  -12.66282  -6.69518  -4.85927  -4.85845  -4.85331
 Alpha  occ. eigenvalues --   -1.98424  -1.93696  -1.90582  -1.26088  -1.25913
 Alpha  occ. eigenvalues --   -1.25562  -1.21825  -1.21213  -1.21104  -1.18481
 Alpha  occ. eigenvalues --   -1.18334  -1.18044  -1.06960  -1.03525  -1.01178
 Alpha  occ. eigenvalues --   -0.99564  -0.84620  -0.62351  -0.51031  -0.50136
 Alpha  occ. eigenvalues --   -0.47448  -0.44520  -0.44222  -0.42681  -0.41960
 Alpha  occ. eigenvalues --   -0.40825  -0.38704  -0.37823  -0.37547  -0.31563
 Alpha  occ. eigenvalues --   -0.30326  -0.29517
 Alpha virt. eigenvalues --   -0.22210  -0.18025  -0.15329  -0.13695  -0.12617
 Alpha virt. eigenvalues --   -0.11330  -0.10044  -0.08824  -0.08448  -0.07263
 Alpha virt. eigenvalues --   -0.07136  -0.06040  -0.05718  -0.05626  -0.05088

 Mulliken atomic charges:
              1
     1  O   -0.651023
     2  O   -0.657694
     3  Ca   1.478710
     4  Ca   1.452562
     5  O   -1.061369
     6  P    0.902812
     7  O   -0.864154
     8  Ca   1.411423
     9  O   -1.011265
 Sum of Mulliken charges=   1.00000

 Dipole moment (field-independent basis, Debye):
    X=     6.6626    Y=     1.0626    Z=     4.9042  Tot=     8.3409
 Quadrupole moment (field-independent basis, Debye-Ang):
   XX=   -22.3339   YY=   -60.3025   ZZ=   -77.4475
   XY=    40.7791   XZ=    17.1585   YZ=    -6.0633

 Normal termination of Gaussian 03 at Fri Jun 12 18:06:29 2015.
