 Gaussian 03, Revision E.01,
 Gaussian 03:  EM64T-G03RevE.01 11-Sep-2007

 ----------------------------------------------------
 # b3lyp/6-31+G(d,p) int=ultrafine pop=(ReadRadii,MK)
 ----------------------------------------------------

 --------------------------------------
 mol_17.23.29.pdbc_plusQ.z58230.zip.xyz
 --------------------------------------
 Symbolic Z-matrix:
 Charge =  1 Multiplicity = 1

                         Standard orientation:
 ---------------------------------------------------------------------
 Center     Atomic     Atomic              Coordinates (Angstroms)
 Number     Number      Type              X           Y           Z
 ---------------------------------------------------------------------
    1          8             0       -3.818400   -1.588928   -0.001449
    2         15             0       -2.503470   -0.841048    0.000601
    3         20             0        0.445400   -1.768428    0.000051
    4          8             0        2.469360   -1.204888   -0.784509
    5          8             0        2.469260   -1.204738    0.784811
    6          8             0        0.042730    0.624452    0.000481
    7          8             0        0.525760    2.084622   -0.001749
    8         20             0        2.487970    0.890972   -0.000049
    9         20             0       -1.731250    2.024032    0.000511
 ---------------------------------------------------------------------

 SCF Done:  E(RB+HF-LYP) =  -2749.99862493     A.U. after   10 cycles

 The electronic state is 1-A.
 Alpha  occ. eigenvalues -- -145.54504-145.49264-145.49197 -77.24627 -19.28291
 Alpha  occ. eigenvalues --  -19.28107 -19.27171 -19.22064 -19.22059 -15.61398
 Alpha  occ. eigenvalues --  -15.56135 -15.56074 -12.74649 -12.74565 -12.74483
 Alpha  occ. eigenvalues --  -12.69360 -12.69354 -12.69295 -12.69293 -12.69210
 Alpha  occ. eigenvalues --  -12.69151  -6.71190  -4.87762  -4.87266  -4.86848
 Alpha  occ. eigenvalues --   -1.98511  -1.93403  -1.93326  -1.26389  -1.26269
 Alpha  occ. eigenvalues --   -1.25574  -1.22097  -1.21347  -1.21071  -1.20937
 Alpha  occ. eigenvalues --   -1.20919  -1.20222  -1.11663  -1.09541  -1.04707
 Alpha  occ. eigenvalues --   -0.91711  -0.85926  -0.65187  -0.53257  -0.51530
 Alpha  occ. eigenvalues --   -0.48924  -0.47573  -0.47145  -0.47025  -0.45524
 Alpha  occ. eigenvalues --   -0.44131  -0.42846  -0.38922  -0.36029  -0.32934
 Alpha  occ. eigenvalues --   -0.30931  -0.30760
 Alpha virt. eigenvalues --   -0.23676  -0.21609  -0.17603  -0.16203  -0.13849
 Alpha virt. eigenvalues --   -0.13782  -0.12405  -0.12121  -0.11195  -0.09165
 Alpha virt. eigenvalues --   -0.08038  -0.07267  -0.07132  -0.06438  -0.06116

 Mulliken atomic charges:
              1
     1  O   -0.537236
     2  P    0.162598
     3  Ca   1.336234
     4  O   -0.653863
     5  O   -0.653817
     6  O   -0.691807
     7  O   -0.660108
     8  Ca   1.467232
     9  Ca   1.230767
 Sum of Mulliken charges=   1.00000

 Dipole moment (field-independent basis, Debye):
    X=    -0.1193    Y=     9.7703    Z=     0.0070  Tot=     9.7710
 Quadrupole moment (field-independent basis, Debye-Ang):
   XX=   -76.1170   YY=   -47.6597   ZZ=   -78.3539
   XY=    -4.1139   XZ=    -0.0153   YZ=     0.0123

 Normal termination of Gaussian 03 at Fri Jun 12 17:52:58 2015.
