 Gaussian 03, Revision E.01,
 Gaussian 03:  EM64T-G03RevE.01 11-Sep-2007

 ----------------------------------------------------
 # b3lyp/6-31+G(d,p) int=ultrafine pop=(ReadRadii,MK)
 ----------------------------------------------------

 --------------------------------------
 mol_17.28.32.pdbc_plusQ.z58556.zip.xyz
 --------------------------------------
 Symbolic Z-matrix:
 Charge =  1 Multiplicity = 1

                         Standard orientation:
 ---------------------------------------------------------------------
 Center     Atomic     Atomic              Coordinates (Angstroms)
 Number     Number      Type              X           Y           Z
 ---------------------------------------------------------------------
    1          8             0        1.716349   -1.435520    0.000162
    2          8             0       -0.570790    1.104060   -0.000128
    3         20             0       -2.823880    1.002501   -0.000058
    4          8             0       -2.726040   -1.080779    0.784952
    5          8             0       -2.726130   -1.080879   -0.784788
    6         20             0       -0.612411   -1.306220   -0.000018
    7         15             0        3.202090   -1.024401   -0.000088
    8         20             0        1.442600    1.859700    0.000092
    9          8             0        3.286920    0.523919   -0.000068
 ---------------------------------------------------------------------

 SCF Done:  E(RB+HF-LYP) =  -2750.20950642     A.U. after    8 cycles

 The electronic state is 1-A.
 Alpha  occ. eigenvalues -- -145.53332-145.48074-145.45100 -77.29903 -19.27897
 Alpha  occ. eigenvalues --  -19.27587 -19.19848 -19.19843 -19.17713 -15.60230
 Alpha  occ. eigenvalues --  -15.54932 -15.51968 -12.73487 -12.73445 -12.73263
 Alpha  occ. eigenvalues --  -12.68141 -12.68114 -12.68042 -12.65211 -12.65174
 Alpha  occ. eigenvalues --  -12.65046  -6.75467  -4.91909  -4.91677  -4.91245
 Alpha  occ. eigenvalues --   -1.97443  -1.92220  -1.89339  -1.25309  -1.25202
 Alpha  occ. eigenvalues --   -1.24292  -1.20533  -1.19817  -1.19416  -1.17303
 Alpha  occ. eigenvalues --   -1.17176  -1.16858  -1.13831  -1.08275  -1.02435
 Alpha  occ. eigenvalues --   -0.92355  -0.83733  -0.67380  -0.56784  -0.52959
 Alpha  occ. eigenvalues --   -0.52657  -0.45505  -0.43661  -0.43386  -0.41976
 Alpha  occ. eigenvalues --   -0.41084  -0.40844  -0.37896  -0.37196  -0.36332
 Alpha  occ. eigenvalues --   -0.30510  -0.28898
 Alpha virt. eigenvalues --   -0.21194  -0.19835  -0.18034  -0.13634  -0.13386
 Alpha virt. eigenvalues --   -0.11559  -0.10893  -0.10485  -0.08700  -0.08261
 Alpha virt. eigenvalues --   -0.07161  -0.06918  -0.06490  -0.06251  -0.05641

 Mulliken atomic charges:
              1
     1  O   -0.679239
     2  O   -1.342472
     3  Ca   1.443867
     4  O   -0.650505
     5  O   -0.650507
     6  Ca   1.400742
     7  P    0.663976
     8  Ca   1.522049
     9  O   -0.707913
 Sum of Mulliken charges=   1.00000

 Dipole moment (field-independent basis, Debye):
    X=     1.2829    Y=    11.7858    Z=     0.0000  Tot=    11.8554
 Quadrupole moment (field-independent basis, Debye-Ang):
   XX=   -63.6663   YY=   -46.8806   ZZ=   -77.2763
   XY=   -16.6439   XZ=     0.0031   YZ=     0.0032

 Normal termination of Gaussian 03 at Fri Jun 12 18:09:40 2015.
