 Gaussian 03, Revision E.01,
 Gaussian 03:  EM64T-G03RevE.01 11-Sep-2007

 ----------------------------------------------------
 # b3lyp/6-31+G(d,p) int=ultrafine pop=(ReadRadii,MK)
 ----------------------------------------------------

 ------------------------------------------
 mol_16.4.58.pdbcc_plusQ.out.z51608.zip.xyz
 ------------------------------------------
 Symbolic Z-matrix:
 Charge =  1 Multiplicity = 1

                         Standard orientation:
 ---------------------------------------------------------------------
 Center     Atomic     Atomic              Coordinates (Angstroms)
 Number     Number      Type              X           Y           Z
 ---------------------------------------------------------------------
    1          8             0        0.044552    1.673199   -0.019870
    2          8             0        3.368420   -0.324984    0.857330
    3          8             0        3.586430   -0.055574   -0.383870
    4         20             0        1.222150   -0.411682   -0.242170
    5         15             0       -1.436997    2.038741    0.019440
    6         20             0       -2.679711   -1.044098    0.127160
    7          8             0       -0.661131   -1.475830   -0.202520
 ---------------------------------------------------------------------

 SCF Done:  E(RB+HF-LYP) =  -1997.07602724     A.U. after   16 cycles

 The electronic state is 1-A.
 Alpha  occ. eigenvalues -- -145.55860-145.49154 -77.31377 -19.37977 -19.37882
 Alpha  occ. eigenvalues --  -19.33606 -19.17383 -15.62740 -15.56057 -12.75966
 Alpha  occ. eigenvalues --  -12.75929 -12.75821 -12.69313 -12.69271 -12.69112
 Alpha  occ. eigenvalues --   -6.77600  -4.94209  -4.93663  -4.93218  -1.99799
 Alpha  occ. eigenvalues --   -1.93358  -1.31915  -1.27443  -1.27174  -1.26638
 Alpha  occ. eigenvalues --   -1.21364  -1.21204  -1.19990  -1.15958  -0.91520
 Alpha  occ. eigenvalues --   -0.91041  -0.71046  -0.61211  -0.58885  -0.58435
 Alpha  occ. eigenvalues --   -0.55317  -0.53874  -0.53124  -0.37896  -0.37540
 Alpha  occ. eigenvalues --   -0.35513  -0.35459  -0.32757
 Alpha virt. eigenvalues --   -0.30653  -0.27837  -0.23518  -0.16572  -0.15181
 Alpha virt. eigenvalues --   -0.14252  -0.11938  -0.11306  -0.09815  -0.08738
 Alpha virt. eigenvalues --   -0.07396  -0.06389  -0.06062  -0.05879  -0.05445

 Mulliken atomic charges:
              1
     1  O   -0.475780
     2  O   -0.175554
     3  O   -0.170711
     4  Ca   1.368959
     5  P    0.298921
     6  Ca   1.261589
     7  O   -1.107423
 Sum of Mulliken charges=   1.00000

 Dipole moment (field-independent basis, Debye):
    X=   -12.8899    Y=    -1.8485    Z=    -0.1485  Tot=    13.0226
 Quadrupole moment (field-independent basis, Debye-Ang):
   XX=   -20.5538   YY=   -60.2277   ZZ=   -56.1323
   XY=     8.8165   XZ=    -6.6134   YZ=    -1.2200

 Normal termination of Gaussian 03 at Fri Jun 12 17:49:29 2015.
