 Gaussian 03, Revision E.01,
 Gaussian 03:  EM64T-G03RevE.01 11-Sep-2007

 ----------------------------------------------------
 # b3lyp/6-31+G(d,p) int=ultrafine pop=(ReadRadii,MK)
 ----------------------------------------------------

 --------------------------------------
 mol_17.27.30.pdbc_plusQ.z58498.zip.xyz
 --------------------------------------
 Symbolic Z-matrix:
 Charge =  1 Multiplicity = 1

                         Standard orientation:
 ---------------------------------------------------------------------
 Center     Atomic     Atomic              Coordinates (Angstroms)
 Number     Number      Type              X           Y           Z
 ---------------------------------------------------------------------
    1          8             0       -1.319720   -0.942370   -0.220050
    2         15             0       -1.733210    0.678640   -0.923200
    3         20             0       -3.426950   -0.794369    0.537080
    4         20             0        0.927460   -1.242151   -0.393680
    5          8             0        2.964630   -1.330961    0.853020
    6          8             0        3.315220   -1.117431   -0.359900
    7          8             0        1.973810    0.821789   -0.436770
    8          8             0        1.627530    0.535049    0.937320
    9         20             0        0.374811    2.341110    0.239550
 ---------------------------------------------------------------------

 SCF Done:  E(RB+HF-LYP) =  -2749.87660949     A.U. after   15 cycles

 The electronic state is 1-A.
 Alpha  occ. eigenvalues -- -145.55186-145.51702-145.47635 -77.16851 -19.33819
 Alpha  occ. eigenvalues --  -19.33294 -19.27229 -19.27052 -19.22210 -15.62065
 Alpha  occ. eigenvalues --  -15.58619 -15.54493 -12.75285 -12.75240 -12.75170
 Alpha  occ. eigenvalues --  -12.71823 -12.71805 -12.71720 -12.67725 -12.67711
 Alpha  occ. eigenvalues --  -12.67577  -6.63417  -4.79927  -4.79379  -4.79188
 Alpha  occ. eigenvalues --   -1.99055  -1.95773  -1.91823  -1.28255  -1.26590
 Alpha  occ. eigenvalues --   -1.26296  -1.26241  -1.24075  -1.23294  -1.22890
 Alpha  occ. eigenvalues --   -1.20273  -1.19490  -1.18580  -1.12991  -1.00634
 Alpha  occ. eigenvalues --   -0.88258  -0.85518  -0.62556  -0.57589  -0.55935
 Alpha  occ. eigenvalues --   -0.54714  -0.50866  -0.48726  -0.45927  -0.44819
 Alpha  occ. eigenvalues --   -0.43535  -0.42241  -0.35982  -0.33368  -0.32162
 Alpha  occ. eigenvalues --   -0.30045  -0.27361
 Alpha virt. eigenvalues --   -0.22986  -0.22704  -0.19022  -0.16114  -0.14644
 Alpha virt. eigenvalues --   -0.13743  -0.12564  -0.11106  -0.10804  -0.09321
 Alpha virt. eigenvalues --   -0.07802  -0.07446  -0.07315  -0.06165  -0.05758

 Mulliken atomic charges:
              1
     1  O   -0.839660
     2  P   -0.705687
     3  Ca   1.229800
     4  Ca   1.405299
     5  O   -0.145260
     6  O   -0.146138
     7  O   -0.517312
     8  O   -0.486778
     9  Ca   1.205735
 Sum of Mulliken charges=   1.00000

 Dipole moment (field-independent basis, Debye):
    X=   -12.0043    Y=    -0.2331    Z=     2.8766  Tot=    12.3463
 Quadrupole moment (field-independent basis, Debye-Ang):
   XX=   -56.5544   YY=   -38.7446   ZZ=   -83.5958
   XY=    19.5289   XZ=   -19.0538   YZ=     4.9719

 Normal termination of Gaussian 03 at Fri Jun 12 18:07:48 2015.
