 Gaussian 03, Revision E.01,
 Gaussian 03:  EM64T-G03RevE.01 11-Sep-2007

 ----------------------------------------------------
 # b3lyp/6-31+G(d,p) int=ultrafine pop=(ReadRadii,MK)
 ----------------------------------------------------

 ---------------------------------------
 mol_17.26.15.pdbcc_plusQ.z58374.zip.xyz
 ---------------------------------------
 Symbolic Z-matrix:
 Charge =  1 Multiplicity = 1

                         Standard orientation:
 ---------------------------------------------------------------------
 Center     Atomic     Atomic              Coordinates (Angstroms)
 Number     Number      Type              X           Y           Z
 ---------------------------------------------------------------------
    1          8             0        0.756128   -1.249721   -0.033460
    2          8             0        0.758661    1.250239   -0.036470
    3         15             0        0.972239    0.001419    1.110400
    4          8             0        2.542529    0.000147    1.245290
    5         20             0        2.534329   -0.002203   -1.021290
    6         20             0       -1.439559    1.800831   -0.044640
    7          8             0       -2.632641    0.001152    0.531720
    8          8             0       -2.378771    0.000472   -1.015500
    9         20             0       -1.442313   -1.800609   -0.043500
 ---------------------------------------------------------------------

 SCF Done:  E(RB+HF-LYP) =  -2750.19821044     A.U. after    7 cycles

 The electronic state is 1-A.
 Alpha  occ. eigenvalues -- -145.52886-145.49503-145.49493 -77.24302 -19.22793
 Alpha  occ. eigenvalues --  -19.22506 -19.21326 -19.21322 -19.19021 -15.59679
 Alpha  occ. eigenvalues --  -15.56365 -15.56355 -12.72861 -12.72857 -12.72844
 Alpha  occ. eigenvalues --  -12.69592 -12.69582 -12.69566 -12.69556 -12.69455
 Alpha  occ. eigenvalues --  -12.69445  -6.69590  -4.85970  -4.85894  -4.85454
 Alpha  occ. eigenvalues --   -1.96714  -1.93608  -1.93573  -1.24676  -1.23979
 Alpha  occ. eigenvalues --   -1.23939  -1.22273  -1.21278  -1.21226  -1.21051
 Alpha  occ. eigenvalues --   -1.21025  -1.20592  -1.06713  -1.05360  -0.99867
 Alpha  occ. eigenvalues --   -0.99595  -0.86447  -0.61783  -0.49595  -0.49235
 Alpha  occ. eigenvalues --   -0.48395  -0.46089  -0.44982  -0.43561  -0.42566
 Alpha  occ. eigenvalues --   -0.41978  -0.37837  -0.37834  -0.34587  -0.33870
 Alpha  occ. eigenvalues --   -0.32215  -0.31068
 Alpha virt. eigenvalues --   -0.20490  -0.17973  -0.17401  -0.13047  -0.12113
 Alpha virt. eigenvalues --   -0.11132  -0.09669  -0.08664  -0.08335  -0.07573
 Alpha virt. eigenvalues --   -0.06944  -0.06821  -0.06582  -0.06263  -0.05324

 Mulliken atomic charges:
              1
     1  O   -0.972148
     2  O   -0.971811
     3  P    0.803915
     4  O   -0.869859
     5  Ca   1.357411
     6  Ca   1.484964
     7  O   -0.658006
     8  O   -0.659861
     9  Ca   1.485397
 Sum of Mulliken charges=   1.00000

 Dipole moment (field-independent basis, Debye):
    X=     1.3331    Y=    -0.0215    Z=    -8.1494  Tot=     8.2578
 Quadrupole moment (field-independent basis, Debye-Ang):
   XX=   -62.1042   YY=   -36.3252   ZZ=   -75.9345
   XY=    -0.0016   XZ=   -28.8004   YZ=     0.0137

 Normal termination of Gaussian 03 at Fri Jun 12 17:59:37 2015.
