 Gaussian 03, Revision E.01,
 Gaussian 03:  EM64T-G03RevE.01 11-Sep-2007

 ----------------------------------------------------
 # b3lyp/6-31+G(d,p) int=ultrafine pop=(ReadRadii,MK)
 ----------------------------------------------------

 --------------------------------------
 mol_17.28.4.pdbcc_plusQ.z58574.zip.xyz
 --------------------------------------
 Symbolic Z-matrix:
 Charge =  1 Multiplicity = 1

                         Standard orientation:
 ---------------------------------------------------------------------
 Center     Atomic     Atomic              Coordinates (Angstroms)
 Number     Number      Type              X           Y           Z
 ---------------------------------------------------------------------
    1          8             0       -0.007628    1.275248    1.197919
    2          8             0        0.220192   -0.000142   -1.481161
    3         20             0       -1.010268    1.753728   -0.860351
    4          8             0       -2.044758    0.001498    0.362209
    5         20             0       -1.013598   -1.751962   -0.861241
    6         15             0       -0.924918    0.000158    1.544919
    7         20             0        1.850602   -0.001882    0.206399
    8          8             0       -0.009878   -1.276382    1.197209
    9          8             0        4.009452   -0.000232   -0.384911
 ---------------------------------------------------------------------

 SCF Done:  E(RB+HF-LYP) =  -2750.13169608     A.U. after   18 cycles

 The electronic state is 1-A.
 Alpha  occ. eigenvalues -- -145.54372-145.54368-145.46597 -77.31609 -19.27365
 Alpha  occ. eigenvalues --  -19.26996 -19.26993 -19.24473 -19.20314 -15.61167
 Alpha  occ. eigenvalues --  -15.61164 -15.53504 -12.74377 -12.74376 -12.74343
 Alpha  occ. eigenvalues --  -12.74342 -12.74302 -12.74301 -12.66757 -12.66708
 Alpha  occ. eigenvalues --  -12.66561  -6.76676  -4.93010  -4.92992  -4.92703
 Alpha  occ. eigenvalues --   -1.98340  -1.98302  -1.90923  -1.26508  -1.26016
 Alpha  occ. eigenvalues --   -1.25954  -1.25701  -1.25624  -1.25166  -1.18954
 Alpha  occ. eigenvalues --   -1.18822  -1.18453  -1.13863  -1.07085  -1.07042
 Alpha  occ. eigenvalues --   -0.94953  -0.93751  -0.67348  -0.56559  -0.56346
 Alpha  occ. eigenvalues --   -0.54260  -0.49235  -0.48808  -0.44124  -0.43967
 Alpha  occ. eigenvalues --   -0.43252  -0.40126  -0.39692  -0.37985  -0.37054
 Alpha  occ. eigenvalues --   -0.36105  -0.33479
 Alpha virt. eigenvalues --   -0.31048  -0.22194  -0.20830  -0.15135  -0.13386
 Alpha virt. eigenvalues --   -0.13011  -0.12151  -0.11853  -0.09007  -0.08141
 Alpha virt. eigenvalues --   -0.07783  -0.06995  -0.06902  -0.06235  -0.05588

 Mulliken atomic charges:
              1
     1  O   -0.916030
     2  O   -1.199953
     3  Ca   1.495010
     4  O   -0.952303
     5  Ca   1.495075
     6  P    1.155899
     7  Ca   1.338057
     8  O   -0.915943
     9  O   -0.499812
 Sum of Mulliken charges=   1.00000

 Dipole moment (field-independent basis, Debye):
    X=    -9.7102    Y=     0.0005    Z=    -6.2057  Tot=    11.5238
 Quadrupole moment (field-independent basis, Debye-Ang):
   XX=   -93.0195   YY=   -37.0317   ZZ=   -79.8897
   XY=     0.0095   XZ=    22.7418   YZ=    -0.0052

 Normal termination of Gaussian 03 at Fri Jun 12 18:12:12 2015.
