 Gaussian 03, Revision E.01,
 Gaussian 03:  EM64T-G03RevE.01 11-Sep-2007

 ----------------------------------------------------
 # b3lyp/6-31+G(d,p) int=ultrafine pop=(ReadRadii,MK)
 ----------------------------------------------------

 ---------------------------------------
 mol_17.29.20.pdbcc_plusQ.z58601.zip.xyz
 ---------------------------------------
 Symbolic Z-matrix:
 Charge =  1 Multiplicity = 1

                         Standard orientation:
 ---------------------------------------------------------------------
 Center     Atomic     Atomic              Coordinates (Angstroms)
 Number     Number      Type              X           Y           Z
 ---------------------------------------------------------------------
    1          8             0        0.294312   -1.000239    0.969730
    2          8             0        0.531174   -1.669799   -0.393970
    3         15             0        1.016339    0.642122    1.227630
    4          8             0        2.532409    0.339245    0.982160
    5          8             0        0.570898    1.290051   -0.248950
    6         20             0        2.153281   -0.233985   -1.161990
    7         20             0       -1.647954    1.885607   -0.274420
    8          8             0       -2.746980    0.079215   -0.327470
    9         20             0       -1.740306   -1.748603    0.123090
 ---------------------------------------------------------------------

 SCF Done:  E(RB+HF-LYP) =  -2750.16692675     A.U. after    9 cycles

 The electronic state is 1-A.
 Alpha  occ. eigenvalues -- -145.52702-145.49229-145.47396 -77.26186 -19.29360
 Alpha  occ. eigenvalues --  -19.26759 -19.23287 -19.20689 -19.12334 -15.59507
 Alpha  occ. eigenvalues --  -15.56123 -15.54295 -12.72703 -12.72698 -12.72648
 Alpha  occ. eigenvalues --  -12.69378 -12.69306 -12.69180 -12.67527 -12.67498
 Alpha  occ. eigenvalues --  -12.67361  -6.71449  -4.87894  -4.87724  -4.87239
 Alpha  occ. eigenvalues --   -1.96615  -1.93369  -1.91590  -1.24642  -1.23987
 Alpha  occ. eigenvalues --   -1.23908  -1.21265  -1.20942  -1.20295  -1.20003
 Alpha  occ. eigenvalues --   -1.19355  -1.18641  -1.12931  -1.06896  -1.01987
 Alpha  occ. eigenvalues --   -0.93253  -0.86550  -0.64615  -0.55143  -0.52550
 Alpha  occ. eigenvalues --   -0.51115  -0.48255  -0.47850  -0.43067  -0.40579
 Alpha  occ. eigenvalues --   -0.39641  -0.37834  -0.35821  -0.33994  -0.32594
 Alpha  occ. eigenvalues --   -0.30752  -0.30649
 Alpha virt. eigenvalues --   -0.20593  -0.18565  -0.16508  -0.14557  -0.12509
 Alpha virt. eigenvalues --   -0.10780  -0.10581  -0.08947  -0.08725  -0.08208
 Alpha virt. eigenvalues --   -0.07328  -0.07080  -0.06620  -0.05807  -0.05408

 Mulliken atomic charges:
              1
     1  O   -0.464233
     2  O   -0.688837
     3  P    0.957972
     4  O   -0.891696
     5  O   -0.998701
     6  Ca   1.445642
     7  Ca   1.389666
     8  O   -1.186765
     9  Ca   1.436952
 Sum of Mulliken charges=   1.00000

 Dipole moment (field-independent basis, Debye):
    X=    -0.3563    Y=     0.4249    Z=    -8.0616  Tot=     8.0807
 Quadrupole moment (field-independent basis, Debye-Ang):
   XX=   -66.2331   YY=   -40.7282   ZZ=   -68.4785
   XY=    -3.5047   XZ=   -27.7679   YZ=    -2.5965

 Normal termination of Gaussian 03 at Fri Jun 12 18:12:07 2015.
