 Gaussian 03, Revision E.01,
 Gaussian 03:  EM64T-G03RevE.01 11-Sep-2007

 ----------------------------------------------------
 # b3lyp/6-31+G(d,p) int=ultrafine pop=(ReadRadii,MK)
 ----------------------------------------------------

 -----------------------------------------
 mol_17.28.22.pdbcccc_plusQ.z58545.zip.xyz
 -----------------------------------------
 Symbolic Z-matrix:
 Charge =  1 Multiplicity = 1

                         Standard orientation:
 ---------------------------------------------------------------------
 Center     Atomic     Atomic              Coordinates (Angstroms)
 Number     Number      Type              X           Y           Z
 ---------------------------------------------------------------------
    1          8             0       -0.588943   -0.000213   -1.656620
    2          8             0        1.238061    1.285078   -0.440570
    3         20             0        1.625727    0.000084    1.390330
    4         15             0        1.065827   -0.000381   -1.530430
    5         20             0       -1.054085    1.671962   -0.138870
    6          8             0        1.237794   -1.285462   -0.440170
    7          8             0       -0.609073    0.000287    1.521310
    8         20             0       -1.054540   -1.671808   -0.138330
    9          8             0       -2.069023    0.000432    1.102780
 ---------------------------------------------------------------------

 SCF Done:  E(RB+HF-LYP) =  -2750.24881686     A.U. after    7 cycles

 The electronic state is 1-A.
 Alpha  occ. eigenvalues -- -145.52377-145.50187-145.50181 -77.25156 -19.25913
 Alpha  occ. eigenvalues --  -19.25468 -19.21784 -19.21784 -19.21338 -15.59136
 Alpha  occ. eigenvalues --  -15.56985 -15.56981 -12.72324 -12.72320 -12.72294
 Alpha  occ. eigenvalues --  -12.70193 -12.70191 -12.70184 -12.70183 -12.70105
 Alpha  occ. eigenvalues --  -12.70103  -6.70244  -4.86598  -4.86590  -4.86029
 Alpha  occ. eigenvalues --   -1.96315  -1.94236  -1.94170  -1.24341  -1.23871
 Alpha  occ. eigenvalues --   -1.23774  -1.22785  -1.22081  -1.21722  -1.21646
 Alpha  occ. eigenvalues --   -1.21528  -1.21229  -1.10028  -1.07329  -1.00859
 Alpha  occ. eigenvalues --   -1.00726  -0.89081  -0.63094  -0.51342  -0.51078
 Alpha  occ. eigenvalues --   -0.50980  -0.49233  -0.48448  -0.46044  -0.43791
 Alpha  occ. eigenvalues --   -0.43558  -0.38833  -0.38645  -0.38610  -0.35304
 Alpha  occ. eigenvalues --   -0.33994  -0.31700
 Alpha virt. eigenvalues --   -0.20297  -0.18391  -0.17634  -0.12782  -0.12605
 Alpha virt. eigenvalues --   -0.10902  -0.09921  -0.09098  -0.08255  -0.07953
 Alpha virt. eigenvalues --   -0.07351  -0.06562  -0.06019  -0.05818  -0.04927

 Mulliken atomic charges:
              1
     1  O   -1.034731
     2  O   -1.043879
     3  Ca   1.482879
     4  P    1.083201
     5  Ca   1.462738
     6  O   -1.043851
     7  O   -0.725534
     8  Ca   1.462778
     9  O   -0.643601
 Sum of Mulliken charges=   1.00000

 Dipole moment (field-independent basis, Debye):
    X=    -0.9499    Y=     0.0006    Z=     6.1990  Tot=     6.2713
 Quadrupole moment (field-independent basis, Debye-Ang):
   XX=   -63.7494   YY=   -44.2182   ZZ=   -80.5085
   XY=     0.0083   XZ=    28.3322   YZ=    -0.0084

 Normal termination of Gaussian 03 at Fri Jun 12 18:08:33 2015.
