 Gaussian 03, Revision E.01,
 Gaussian 03:  EM64T-G03RevE.01 11-Sep-2007

 ----------------------------------------------------
 # b3lyp/6-31+G(d,p) int=ultrafine pop=(ReadRadii,MK)
 ----------------------------------------------------

 -----------------------------------------
 mol_17.27.25.pdbcccc_plusQ.z58493.zip.xyz
 -----------------------------------------
 Symbolic Z-matrix:
 Charge =  1 Multiplicity = 1

                         Standard orientation:
 ---------------------------------------------------------------------
 Center     Atomic     Atomic              Coordinates (Angstroms)
 Number     Number      Type              X           Y           Z
 ---------------------------------------------------------------------
    1         20             0       -3.646702    0.000366    0.000191
    2          8             0       -1.835192    0.000728    1.244221
    3          8             0       -1.835702   -0.000892   -1.244209
    4         15             0       -0.844812   -0.000271   -0.000139
    5          8             0        0.043199   -1.284100    0.000431
    6         20             0        2.192290   -1.801278    0.000081
    7          8             0        3.322958    0.000054    0.000071
    8         20             0        2.192466    1.801482    0.000051
    9          8             0        0.043626    1.283290   -0.001059
 ---------------------------------------------------------------------

 SCF Done:  E(RB+HF-LYP) =  -2750.29170025     A.U. after    8 cycles

 The electronic state is 1-A.
 Alpha  occ. eigenvalues -- -145.54152-145.46284-145.46282 -77.27664 -19.18263
 Alpha  occ. eigenvalues --  -19.18263 -19.17719 -19.17714 -19.10177 -15.60954
 Alpha  occ. eigenvalues --  -15.53191 -15.53189 -12.74195 -12.74096 -12.74090
 Alpha  occ. eigenvalues --  -12.66442 -12.66440 -12.66375 -12.66373 -12.66247
 Alpha  occ. eigenvalues --  -12.66245  -6.71843  -4.88217  -4.88213  -4.88191
 Alpha  occ. eigenvalues --   -1.97987  -1.90485  -1.90457  -1.25627  -1.25492
 Alpha  occ. eigenvalues --   -1.25086  -1.18348  -1.18320  -1.18275  -1.17972
 Alpha  occ. eigenvalues --   -1.17675  -1.17134  -1.08334  -0.99677  -0.99465
 Alpha  occ. eigenvalues --   -0.98449  -0.84511  -0.59122  -0.50420  -0.49051
 Alpha  occ. eigenvalues --   -0.49045  -0.41200  -0.40282  -0.39359  -0.39291
 Alpha  occ. eigenvalues --   -0.38015  -0.33871  -0.33698  -0.33214  -0.30550
 Alpha  occ. eigenvalues --   -0.28778  -0.28715
 Alpha virt. eigenvalues --   -0.21438  -0.16810  -0.15473  -0.12303  -0.11420
 Alpha virt. eigenvalues --   -0.09315  -0.08935  -0.08087  -0.07473  -0.06966
 Alpha virt. eigenvalues --   -0.06469  -0.06122  -0.05180  -0.05038  -0.04627

 Mulliken atomic charges:
              1
     1  Ca   1.465539
     2  O   -0.989943
     3  O   -0.989902
     4  P    1.987076
     5  O   -1.057092
     6  Ca   1.417998
     7  O   -1.194424
     8  Ca   1.418011
     9  O   -1.057262
 Sum of Mulliken charges=   1.00000

 Dipole moment (field-independent basis, Debye):
    X=    -7.7057    Y=     0.0055    Z=     0.0031  Tot=     7.7057
 Quadrupole moment (field-independent basis, Debye-Ang):
   XX=     5.2219   YY=   -35.9903   ZZ=   -86.1848
   XY=    -0.0088   XZ=    -0.0069   YZ=    -0.0007

 Normal termination of Gaussian 03 at Fri Jun 12 18:06:35 2015.
