 Gaussian 03, Revision E.01,
 Gaussian 03:  EM64T-G03RevE.01 11-Sep-2007

 ----------------------------------------------------
 # b3lyp/6-31+G(d,p) int=ultrafine pop=(ReadRadii,MK)
 ----------------------------------------------------

 ---------------------------------------
 mol_17.27.0.pdbccc_plusQ.z58476.zip.xyz
 ---------------------------------------
 Symbolic Z-matrix:
 Charge =  1 Multiplicity = 1

                         Standard orientation:
 ---------------------------------------------------------------------
 Center     Atomic     Atomic              Coordinates (Angstroms)
 Number     Number      Type              X           Y           Z
 ---------------------------------------------------------------------
    1          8             0       -2.561190    0.084045    0.389989
    2          8             0       -1.260177    0.758268    0.700419
    3         15             0       -0.046308   -0.052439    1.763389
    4          8             0        1.159552    0.880253    1.115939
    5          8             0        0.498381   -0.016574   -1.701221
    6         20             0        0.083642    1.945582   -0.703271
    7         20             0        2.034029   -0.779208   -0.271151
    8         20             0       -1.284656   -1.230542   -0.921261
    9          8             0        0.167726   -1.447247    0.927729
 ---------------------------------------------------------------------

 SCF Done:  E(RB+HF-LYP) =  -2750.19417678     A.U. after    9 cycles

 The electronic state is 1-A.
 Alpha  occ. eigenvalues -- -145.51666-145.51596-145.48706 -77.27301 -19.29094
 Alpha  occ. eigenvalues --  -19.23570 -19.23488 -19.23304 -19.17353 -15.58478
 Alpha  occ. eigenvalues --  -15.58422 -15.55554 -12.71692 -12.71654 -12.71629
 Alpha  occ. eigenvalues --  -12.71606 -12.71595 -12.71550 -12.68782 -12.68748
 Alpha  occ. eigenvalues --  -12.68648  -6.72398  -4.88803  -4.88690  -4.88156
 Alpha  occ. eigenvalues --   -1.95723  -1.95668  -1.92864  -1.23976  -1.23550
 Alpha  occ. eigenvalues --   -1.23413  -1.23062  -1.23028  -1.22527  -1.21067
 Alpha  occ. eigenvalues --   -1.20539  -1.19968  -1.13363  -1.07571  -1.03113
 Alpha  occ. eigenvalues --   -0.92324  -0.90593  -0.65536  -0.55301  -0.53390
 Alpha  occ. eigenvalues --   -0.51713  -0.49581  -0.46916  -0.44126  -0.42331
 Alpha  occ. eigenvalues --   -0.40300  -0.37801  -0.37636  -0.36830  -0.35226
 Alpha  occ. eigenvalues --   -0.33503  -0.32026
 Alpha virt. eigenvalues --   -0.20904  -0.19066  -0.17416  -0.13458  -0.12276
 Alpha virt. eigenvalues --   -0.11628  -0.10498  -0.10037  -0.08918  -0.08220
 Alpha virt. eigenvalues --   -0.07984  -0.06859  -0.06591  -0.06167  -0.05828

 Mulliken atomic charges:
              1
     1  O   -0.569020
     2  O   -0.590495
     3  P    1.101576
     4  O   -1.001292
     5  O   -1.261608
     6  Ca   1.493436
     7  Ca   1.428978
     8  Ca   1.417445
     9  O   -1.019019
 Sum of Mulliken charges=   1.00000

 Dipole moment (field-independent basis, Debye):
    X=     6.9409    Y=    -0.1200    Z=    -8.5339  Tot=    11.0008
 Quadrupole moment (field-independent basis, Debye-Ang):
   XX=   -58.4055   YY=   -40.8348   ZZ=   -88.3337
   XY=     0.3328   XZ=     9.1261   YZ=    -0.2724

 Normal termination of Gaussian 03 at Fri Jun 12 18:02:51 2015.
