 Gaussian 03, Revision E.01,
 Gaussian 03:  EM64T-G03RevE.01 11-Sep-2007

 ----------------------------------------------------
 # b3lyp/6-31+G(d,p) int=ultrafine pop=(ReadRadii,MK)
 ----------------------------------------------------

 ----------------------------------------
 mol_17.22.52.pdbccc_plusQ.z58202.zip.xyz
 ----------------------------------------
 Symbolic Z-matrix:
 Charge =  1 Multiplicity = 1

                         Standard orientation:
 ---------------------------------------------------------------------
 Center     Atomic     Atomic              Coordinates (Angstroms)
 Number     Number      Type              X           Y           Z
 ---------------------------------------------------------------------
    1          8             0       -0.640801    0.419046   -1.499671
    2         15             0       -0.120032   -1.138641   -1.428411
    3         20             0       -2.162960    0.235127    0.314529
    4          8             0       -0.837769   -1.605975   -0.014561
    5          8             0        1.550757   -1.015351   -0.877391
    6          8             0        2.114410    0.146053   -0.066511
    7         20             0        0.821336   -0.893675    1.511249
    8          8             0       -0.420325    1.042387    1.406009
    9         20             0        0.725140    1.918064   -0.333621
 ---------------------------------------------------------------------

 SCF Done:  E(RB+HF-LYP) =  -2750.21034410     A.U. after    8 cycles

 The electronic state is 1-A.
 Alpha  occ. eigenvalues -- -145.50971-145.50033-145.49664 -77.27057 -19.28855
 Alpha  occ. eigenvalues --  -19.25350 -19.23443 -19.23036 -19.16664 -15.57806
 Alpha  occ. eigenvalues --  -15.56858 -15.56455 -12.71016 -12.70979 -12.70930
 Alpha  occ. eigenvalues --  -12.70051 -12.70041 -12.69996 -12.69675 -12.69618
 Alpha  occ. eigenvalues --  -12.69604  -6.72149  -4.88577  -4.88437  -4.87914
 Alpha  occ. eigenvalues --   -1.95107  -1.94141  -1.93666  -1.23168  -1.22843
 Alpha  occ. eigenvalues --   -1.22455  -1.22337  -1.21698  -1.21424  -1.21271
 Alpha  occ. eigenvalues --   -1.21078  -1.20708  -1.13172  -1.07396  -1.02699
 Alpha  occ. eigenvalues --   -0.93086  -0.91566  -0.65303  -0.55841  -0.52709
 Alpha  occ. eigenvalues --   -0.51414  -0.48533  -0.47288  -0.44381  -0.42315
 Alpha  occ. eigenvalues --   -0.39789  -0.38427  -0.37066  -0.36747  -0.35855
 Alpha  occ. eigenvalues --   -0.34610  -0.32792
 Alpha virt. eigenvalues --   -0.20649  -0.18461  -0.17441  -0.13976  -0.12921
 Alpha virt. eigenvalues --   -0.11314  -0.10746  -0.09648  -0.08851  -0.08054
 Alpha virt. eigenvalues --   -0.07444  -0.06427  -0.06172  -0.05805  -0.05329

 Mulliken atomic charges:
              1
     1  O   -1.036634
     2  P    1.074495
     3  Ca   1.421844
     4  O   -1.032947
     5  O   -0.487690
     6  O   -0.620617
     7  Ca   1.451340
     8  O   -1.264428
     9  Ca   1.494637
 Sum of Mulliken charges=   1.00000

 Dipole moment (field-independent basis, Debye):
    X=    -4.9084    Y=     5.7930    Z=     5.8604  Tot=     9.5914
 Quadrupole moment (field-independent basis, Debye-Ang):
   XX=   -52.0355   YY=   -57.9015   ZZ=   -75.5641
   XY=     2.1383   XZ=     5.9766   YZ=   -22.4108

 Normal termination of Gaussian 03 at Fri Jun 12 17:51:14 2015.
