 Gaussian 03, Revision E.01,
 Gaussian 03:  EM64T-G03RevE.01 11-Sep-2007

 ----------------------------------------------------
 # b3lyp/6-31+G(d,p) int=ultrafine pop=(ReadRadii,MK)
 ----------------------------------------------------

 -----------------------------------------------
 mol_17.25.23.pdbcccc_plusQ_plusQ.z58328.zip.xyz
 -----------------------------------------------
 Symbolic Z-matrix:
 Charge =  1 Multiplicity = 1

                         Standard orientation:
 ---------------------------------------------------------------------
 Center     Atomic     Atomic              Coordinates (Angstroms)
 Number     Number      Type              X           Y           Z
 ---------------------------------------------------------------------
    1          8             0        0.000000    0.996420    0.000000
    2          8             0        0.796820    2.185770    0.000000
    3          8             0       -0.096950    3.394280    0.000000
    4          8             0       -1.473480    3.036071    0.000000
    5         15             0       -1.766580    1.324931    0.000000
    6         20             0       -3.197510   -1.038119    0.000000
    7          8             0       -1.290001   -1.916439    0.000000
    8         20             0        0.743260   -1.262850    0.000000
    9         20             0        4.604630   -1.771170    0.000000
 ---------------------------------------------------------------------

 SCF Done:  E(RB+HF-LYP) =  -2749.71103219     A.U. after    9 cycles

 The electronic state is 1-A'.
 Alpha  occ. eigenvalues -- -145.54622-145.52251-145.49113 -77.22351 -19.37855
 Alpha  occ. eigenvalues --  -19.36715 -19.33985 -19.31278 -19.14502 -15.61677
 Alpha  occ. eigenvalues --  -15.59085 -15.56025 -12.74815 -12.74815 -12.74800
 Alpha  occ. eigenvalues --  -12.72300 -12.72287 -12.72186 -12.69279 -12.69208
 Alpha  occ. eigenvalues --  -12.69090  -6.68523  -4.85281  -4.84796  -4.83812
 Alpha  occ. eigenvalues --   -1.98736  -1.96147  -1.93258  -1.28670  -1.25995
 Alpha  occ. eigenvalues --   -1.25994  -1.25830  -1.23688  -1.23662  -1.23053
 Alpha  occ. eigenvalues --   -1.21084  -1.21050  -1.20189  -1.17900  -1.04566
 Alpha  occ. eigenvalues --   -0.89784  -0.88674  -0.73525  -0.60808  -0.57301
 Alpha  occ. eigenvalues --   -0.55610  -0.55081  -0.49614  -0.49532  -0.44962
 Alpha  occ. eigenvalues --   -0.42663  -0.35168  -0.33340  -0.32744  -0.32699
 Alpha  occ. eigenvalues --   -0.30356  -0.25483
 Alpha virt. eigenvalues --   -0.20352  -0.19721  -0.16611  -0.16206  -0.16029
 Alpha virt. eigenvalues --   -0.13989  -0.12532  -0.11311  -0.11286  -0.09858
 Alpha virt. eigenvalues --   -0.09809  -0.09272  -0.08951  -0.08158  -0.06938

 Mulliken atomic charges:
              1
     1  O   -0.460775
     2  O    0.017135
     3  O    0.016497
     4  O   -0.342812
     5  P    0.072324
     6  Ca   1.311538
     7  O   -1.165723
     8  Ca   1.076216
     9  Ca   0.475601
 Sum of Mulliken charges=   1.00000

 Dipole moment (field-independent basis, Debye):
    X=     3.4624    Y=   -10.9919    Z=     0.0000  Tot=    11.5243
 Quadrupole moment (field-independent basis, Debye-Ang):
   XX=    39.2564   YY=   -92.7457   ZZ=   -88.4905
   XY=   -10.8042   XZ=     0.0000   YZ=     0.0000

 Normal termination of Gaussian 03 at Fri Jun 12 17:57:13 2015.
