 Gaussian 03, Revision E.01,
 Gaussian 03:  EM64T-G03RevE.01 11-Sep-2007

 ----------------------------------------------------
 # b3lyp/6-31+G(d,p) int=ultrafine pop=(ReadRadii,MK)
 ----------------------------------------------------

 -----------------------------------------
 mol_17.24.31.pdbcccc_plusQ.z58284.zip.xyz
 -----------------------------------------
 Symbolic Z-matrix:
 Charge =  1 Multiplicity = 1

                         Standard orientation:
 ---------------------------------------------------------------------
 Center     Atomic     Atomic              Coordinates (Angstroms)
 Number     Number      Type              X           Y           Z
 ---------------------------------------------------------------------
    1          8             0       -1.237570    1.423400    0.057640
    2          8             0       -1.527189   -1.826130    0.027280
    3         20             0       -3.615749   -1.314211   -0.072900
    4         15             0       -2.637380    2.047960   -0.009750
    5          8             0       -3.727380    0.940699   -0.068120
    6         20             0        0.188220   -0.448990    0.112150
    7          8             0        2.356800   -0.187089    0.091940
    8         20             0        4.451320    0.007222   -0.021700
    9          8             0        6.520950    0.199142   -0.134340
 ---------------------------------------------------------------------

 SCF Done:  E(RB+HF-LYP) =  -2750.03580296     A.U. after   18 cycles

 The electronic state is 1-A.
 Alpha  occ. eigenvalues -- -145.53717-145.50783-145.45807 -77.29002 -19.27000
 Alpha  occ. eigenvalues --  -19.26602 -19.25814 -19.20858 -19.19794 -15.60607
 Alpha  occ. eigenvalues --  -15.57500 -15.52656 -12.73858 -12.73790 -12.73678
 Alpha  occ. eigenvalues --  -12.70736 -12.70732 -12.70608 -12.65941 -12.65834
 Alpha  occ. eigenvalues --  -12.65729  -6.74519  -4.90961  -4.90740  -4.90301
 Alpha  occ. eigenvalues --   -1.97742  -1.94382  -1.89919  -1.25537  -1.25314
 Alpha  occ. eigenvalues --   -1.24704  -1.22283  -1.22042  -1.22021  -1.18025
 Alpha  occ. eigenvalues --   -1.17757  -1.17348  -1.12797  -1.07392  -0.95843
 Alpha  occ. eigenvalues --   -0.93682  -0.92634  -0.66429  -0.55907  -0.51694
 Alpha  occ. eigenvalues --   -0.51575  -0.44595  -0.42695  -0.40351  -0.39730
 Alpha  occ. eigenvalues --   -0.38329  -0.38177  -0.38059  -0.37475  -0.37293
 Alpha  occ. eigenvalues --   -0.36443  -0.35306
 Alpha virt. eigenvalues --   -0.33035  -0.20942  -0.18821  -0.16641  -0.13246
 Alpha virt. eigenvalues --   -0.12786  -0.10997  -0.09713  -0.09541  -0.09193
 Alpha virt. eigenvalues --   -0.07641  -0.07112  -0.06838  -0.05846  -0.05305

 Mulliken atomic charges:
              1
     1  O   -0.688895
     2  O   -1.002957
     3  Ca   1.465083
     4  P    0.657021
     5  O   -0.724129
     6  Ca   1.430706
     7  O   -0.936845
     8  Ca   1.327269
     9  O   -0.527253
 Sum of Mulliken charges=   1.00000

 Dipole moment (field-independent basis, Debye):
    X=    -9.3221    Y=    -5.1629    Z=    -0.0842  Tot=    10.6567
 Quadrupole moment (field-independent basis, Debye-Ang):
   XX=   -26.9549   YY=   -77.1802   ZZ=   -73.0242
   XY=    23.5747   XZ=     2.4703   YZ=     0.7714

 Normal termination of Gaussian 03 at Fri Jun 12 17:56:28 2015.
