 Gaussian 03, Revision E.01,
 Gaussian 03:  EM64T-G03RevE.01 11-Sep-2007

 ----------------------------------------------------
 # b3lyp/6-31+G(d,p) int=ultrafine pop=(ReadRadii,MK)
 ----------------------------------------------------

 -------------------------------------
 mol_17.23.7.pdbc_plusQ.z58262.zip.xyz
 -------------------------------------
 Symbolic Z-matrix:
 Charge =  1 Multiplicity = 1

                         Standard orientation:
 ---------------------------------------------------------------------
 Center     Atomic     Atomic              Coordinates (Angstroms)
 Number     Number      Type              X           Y           Z
 ---------------------------------------------------------------------
    1          8             0        1.468088   -3.127599    0.000000
    2         15             0        0.400728   -1.956669    0.000000
    3         20             0        3.341428   -1.944900    0.000000
    4          8             0        1.468709   -0.660939    0.000000
    5          8             0       -0.994139    3.199042    0.000000
    6         20             0        0.000000    1.252091    0.000000
    7         20             0       -3.011529    2.499863    0.000000
    8          8             0       -2.204630    0.451703    0.000000
    9          8             0       -1.314141   -0.711088    0.000000
 ---------------------------------------------------------------------

 SCF Done:  E(RB+HF-LYP) =  -2750.05251751     A.U. after   12 cycles

 The electronic state is 1-A'.
 Alpha  occ. eigenvalues -- -145.58534-145.47465-145.42800 -77.28575 -19.26821
 Alpha  occ. eigenvalues --  -19.25403 -19.24181 -19.21420 -19.10036 -15.65353
 Alpha  occ. eigenvalues --  -15.54274 -15.49764 -12.78592 -12.78504 -12.78479
 Alpha  occ. eigenvalues --  -12.67511 -12.67442 -12.67373 -12.63047 -12.62948
 Alpha  occ. eigenvalues --  -12.62791  -6.73714  -4.89967  -4.89965  -4.89657
 Alpha  occ. eigenvalues --   -2.02325  -1.91448  -1.87284  -1.29961  -1.29781
 Alpha  occ. eigenvalues --   -1.29475  -1.19284  -1.19188  -1.18353  -1.15754
 Alpha  occ. eigenvalues --   -1.15422  -1.14625  -1.10524  -1.07785  -1.05054
 Alpha  occ. eigenvalues --   -0.85521  -0.83863  -0.65944  -0.54343  -0.53389
 Alpha  occ. eigenvalues --   -0.50465  -0.48516  -0.43892  -0.43546  -0.43031
 Alpha  occ. eigenvalues --   -0.42301  -0.36542  -0.30721  -0.29638  -0.29406
 Alpha  occ. eigenvalues --   -0.27726  -0.27149
 Alpha virt. eigenvalues --   -0.24783  -0.18170  -0.17234  -0.15637  -0.15608
 Alpha virt. eigenvalues --   -0.13506  -0.11443  -0.09246  -0.08111  -0.07864
 Alpha virt. eigenvalues --   -0.07859  -0.07325  -0.06574  -0.05591  -0.05475

 Mulliken atomic charges:
              1
     1  O   -0.775987
     2  P    0.780781
     3  Ca   1.515212
     4  O   -0.893142
     5  O   -1.120248
     6  Ca   1.345841
     7  Ca   1.340468
     8  O   -0.615872
     9  O   -0.577054
 Sum of Mulliken charges=   1.00000

 Dipole moment (field-independent basis, Debye):
    X=     9.7187    Y=    -0.7270    Z=     0.0000  Tot=     9.7459
 Quadrupole moment (field-independent basis, Debye-Ang):
   XX=    28.9699   YY=   -82.5262   ZZ=   -75.1375
   XY=   -62.8595   XZ=     0.0000   YZ=     0.0000

 Normal termination of Gaussian 03 at Fri Jun 12 17:54:29 2015.
