 Gaussian 03, Revision E.01,
 Gaussian 03:  EM64T-G03RevE.01 11-Sep-2007

 ----------------------------------------------------
 # b3lyp/6-31+G(d,p) int=ultrafine pop=(ReadRadii,MK)
 ----------------------------------------------------

 ----------------------------------------
 mol_16.5.12.pdb_plusQ.out.z51618.zip.xyz
 ----------------------------------------
 Symbolic Z-matrix:
 Charge =  1 Multiplicity = 1

                         Standard orientation:
 ---------------------------------------------------------------------
 Center     Atomic     Atomic              Coordinates (Angstroms)
 Number     Number      Type              X           Y           Z
 ---------------------------------------------------------------------
    1          8             0       -0.980540    0.815370    1.250218
    2          8             0        1.349121    1.316398    0.000078
    3         15             0       -0.067290    0.679929   -0.000002
    4          8             0       -0.980760    0.815950   -1.249912
    5         20             0       -2.247452   -0.688738   -0.000012
    6          8             0        0.252008   -0.980181   -0.000322
    7         20             0        2.441988   -0.608224   -0.000012
 ---------------------------------------------------------------------

 SCF Done:  E(RB+HF-LYP) =  -1997.39686934     A.U. after    8 cycles

 The electronic state is 1-A.
 Alpha  occ. eigenvalues -- -145.57544-145.56066 -77.29918 -19.22734 -19.22264
 Alpha  occ. eigenvalues --  -19.19555 -19.19552 -15.64329 -15.62747 -12.77572
 Alpha  occ. eigenvalues --  -12.77477 -12.77470 -12.75958 -12.75931 -12.75928
 Alpha  occ. eigenvalues --   -6.74490  -4.90945  -4.90803  -4.90709  -2.01282
 Alpha  occ. eigenvalues --   -1.99569  -1.28881  -1.28832  -1.28372  -1.27394
 Alpha  occ. eigenvalues --   -1.26801  -1.26704  -1.11447  -1.04130  -1.01267
 Alpha  occ. eigenvalues --   -1.01109  -0.61215  -0.53198  -0.51405  -0.50526
 Alpha  occ. eigenvalues --   -0.45808  -0.42792  -0.42565  -0.41453  -0.40257
 Alpha  occ. eigenvalues --   -0.38008  -0.36317  -0.34168
 Alpha virt. eigenvalues --   -0.23654  -0.21655  -0.14051  -0.13682  -0.12202
 Alpha virt. eigenvalues --   -0.12003  -0.11178  -0.08336  -0.07557  -0.06421
 Alpha virt. eigenvalues --   -0.05283  -0.05144  -0.04532  -0.04381  -0.04183

 Mulliken atomic charges:
              1
     1  O   -0.883843
     2  O   -0.864577
     3  P    1.786288
     4  O   -0.883737
     5  Ca   1.448768
     6  O   -1.128250
     7  Ca   1.525351
 Sum of Mulliken charges=   1.00000

 Dipole moment (field-independent basis, Debye):
    X=     2.7826    Y=   -12.3754    Z=    -0.0007  Tot=    12.6843
 Quadrupole moment (field-independent basis, Debye-Ang):
   XX=    21.8567   YY=   -59.4259   ZZ=   -66.1583
   XY=     1.3353   XZ=     0.0009   YZ=    -0.0005

 Normal termination of Gaussian 03 at Fri Jun 12 17:49:31 2015.
