 Gaussian 03, Revision E.01,
 Gaussian 03:  EM64T-G03RevE.01 11-Sep-2007

 ----------------------------------------------------
 # b3lyp/6-31+G(d,p) int=ultrafine pop=(ReadRadii,MK)
 ----------------------------------------------------

 -----------------------------------------
 mol_17.26.48.pdbcccc_plusQ.z58459.zip.xyz
 -----------------------------------------
 Symbolic Z-matrix:
 Charge =  1 Multiplicity = 1

                         Standard orientation:
 ---------------------------------------------------------------------
 Center     Atomic     Atomic              Coordinates (Angstroms)
 Number     Number      Type              X           Y           Z
 ---------------------------------------------------------------------
    1          8             0        2.079450    1.335691   -0.910380
    2          8             0       -1.517419    0.000530    0.884200
    3          8             0       -1.177659   -0.001110   -0.637930
    4         20             0        0.187270    1.702891    0.344360
    5         20             0       -3.453009   -0.000620   -0.370620
    6         15             0        2.495521    0.000701   -0.197170
    7          8             0        2.081931   -1.335989   -0.908430
    8          8             0        1.546941    0.000811    1.146890
    9         20             0        0.188801   -1.702769    0.344400
 ---------------------------------------------------------------------

 SCF Done:  E(RB+HF-LYP) =  -2750.15751615     A.U. after   20 cycles

 The electronic state is 1-A.
 Alpha  occ. eigenvalues -- -145.56214-145.51125-145.51120 -77.27111 -19.30505
 Alpha  occ. eigenvalues --  -19.30487 -19.22908 -19.21793 -19.21792 -15.63125
 Alpha  occ. eigenvalues --  -15.57932 -15.57928 -12.76350 -12.76299 -12.76219
 Alpha  occ. eigenvalues --  -12.71150 -12.71148 -12.71117 -12.71116 -12.71057
 Alpha  occ. eigenvalues --  -12.71055  -6.72195  -4.88531  -4.88429  -4.88349
 Alpha  occ. eigenvalues --   -2.00117  -1.95106  -1.95052  -1.27807  -1.27711
 Alpha  occ. eigenvalues --   -1.27446  -1.23694  -1.23085  -1.22639  -1.22500
 Alpha  occ. eigenvalues --   -1.22437  -1.22168  -1.13721  -1.09534  -1.02657
 Alpha  occ. eigenvalues --   -1.02084  -0.94009  -0.61785  -0.53659  -0.53330
 Alpha  occ. eigenvalues --   -0.52704  -0.51405  -0.50645  -0.49192  -0.44747
 Alpha  occ. eigenvalues --   -0.42118  -0.40691  -0.39945  -0.39086  -0.38992
 Alpha  occ. eigenvalues --   -0.37143  -0.27801
 Alpha virt. eigenvalues --   -0.25209  -0.19512  -0.19343  -0.17311  -0.15829
 Alpha virt. eigenvalues --   -0.13469  -0.12955  -0.10200  -0.10173  -0.08775
 Alpha virt. eigenvalues --   -0.08628  -0.07738  -0.07083  -0.07016  -0.05707

 Mulliken atomic charges:
              1
     1  O   -0.747037
     2  O   -0.613012
     3  O   -0.664903
     4  Ca   1.329657
     5  Ca   1.050320
     6  P    0.952244
     7  O   -0.746917
     8  O   -0.889894
     9  Ca   1.329543
 Sum of Mulliken charges=   1.00000

 Dipole moment (field-independent basis, Debye):
    X=   -14.0713    Y=    -0.0014    Z=     3.1409  Tot=    14.4176
 Quadrupole moment (field-independent basis, Debye-Ang):
   XX=   -56.9599   YY=   -49.6054   ZZ=   -89.9174
   XY=     0.0036   XZ=    10.9574   YZ=     0.0028

 Normal termination of Gaussian 03 at Fri Jun 12 18:03:18 2015.
