 Gaussian 03, Revision E.01,
 Gaussian 03:  EM64T-G03RevE.01 11-Sep-2007

 ----------------------------------------------------
 # b3lyp/6-31+G(d,p) int=ultrafine pop=(ReadRadii,MK)
 ----------------------------------------------------

 ----------------------------------------
 mol_17.26.33.pdbccc_plusQ.z58445.zip.xyz
 ----------------------------------------
 Symbolic Z-matrix:
 Charge =  1 Multiplicity = 1

                         Standard orientation:
 ---------------------------------------------------------------------
 Center     Atomic     Atomic              Coordinates (Angstroms)
 Number     Number      Type              X           Y           Z
 ---------------------------------------------------------------------
    1          8             0       -1.237376    1.285266   -0.440930
    2          8             0       -1.237586   -1.284904   -0.441820
    3          8             0        0.607649   -0.000442    1.521940
    4          8             0        2.067529   -0.000208    1.104040
    5         20             0        1.054432   -1.671884   -0.138550
    6          8             0        0.590669    0.000518   -1.656200
    7         15             0       -1.064721    0.000505   -1.531030
    8         20             0        1.054236    1.671956   -0.137560
    9         20             0       -1.626481   -0.000543    1.389570
 ---------------------------------------------------------------------

 SCF Done:  E(RB+HF-LYP) =  -2750.24881795     A.U. after    7 cycles

 The electronic state is 1-A.
 Alpha  occ. eigenvalues -- -145.52380-145.50184-145.50176 -77.25153 -19.25911
 Alpha  occ. eigenvalues --  -19.25460 -19.21785 -19.21785 -19.21334 -15.59139
 Alpha  occ. eigenvalues --  -15.56982 -15.56976 -12.72327 -12.72322 -12.72297
 Alpha  occ. eigenvalues --  -12.70190 -12.70185 -12.70182 -12.70177 -12.70102
 Alpha  occ. eigenvalues --  -12.70097  -6.70242  -4.86596  -4.86587  -4.86027
 Alpha  occ. eigenvalues --   -1.96317  -1.94232  -1.94166  -1.24343  -1.23874
 Alpha  occ. eigenvalues --   -1.23776  -1.22783  -1.22078  -1.21719  -1.21643
 Alpha  occ. eigenvalues --   -1.21524  -1.21226  -1.10034  -1.07328  -1.00853
 Alpha  occ. eigenvalues --   -1.00733  -0.89076  -0.63093  -0.51344  -0.51078
 Alpha  occ. eigenvalues --   -0.50978  -0.49234  -0.48450  -0.46045  -0.43791
 Alpha  occ. eigenvalues --   -0.43558  -0.38834  -0.38642  -0.38611  -0.35300
 Alpha  occ. eigenvalues --   -0.33988  -0.31697
 Alpha virt. eigenvalues --   -0.20298  -0.18390  -0.17633  -0.12782  -0.12603
 Alpha virt. eigenvalues --   -0.10902  -0.09918  -0.09097  -0.08255  -0.07948
 Alpha virt. eigenvalues --   -0.07350  -0.06562  -0.06019  -0.05817  -0.04925

 Mulliken atomic charges:
              1
     1  O   -1.043815
     2  O   -1.043766
     3  O   -0.725470
     4  O   -0.643542
     5  Ca   1.462745
     6  O   -1.034903
     7  P    1.083176
     8  Ca   1.462656
     9  Ca   1.482919
 Sum of Mulliken charges=   1.00000

 Dipole moment (field-independent basis, Debye):
    X=     0.9429    Y=    -0.0041    Z=     6.2036  Tot=     6.2748
 Quadrupole moment (field-independent basis, Debye-Ang):
   XX=   -63.7050   YY=   -44.2105   ZZ=   -80.5499
   XY=     0.0064   XZ=   -28.3167   YZ=     0.0091

 Normal termination of Gaussian 03 at Fri Jun 12 18:00:32 2015.
