 Gaussian 03, Revision E.01,
 Gaussian 03:  EM64T-G03RevE.01 11-Sep-2007

 ----------------------------------------------------
 # b3lyp/6-31+G(d,p) int=ultrafine pop=(ReadRadii,MK)
 ----------------------------------------------------

 --------------------------------------
 mol_17.23.5.pdbcc_plusQ.z58260.zip.xyz
 --------------------------------------
 Symbolic Z-matrix:
 Charge =  1 Multiplicity = 1

                         Standard orientation:
 ---------------------------------------------------------------------
 Center     Atomic     Atomic              Coordinates (Angstroms)
 Number     Number      Type              X           Y           Z
 ---------------------------------------------------------------------
    1          8             0       -2.446939    1.551002    0.000000
    2          8             0       -1.692092   -1.065369    0.000000
    3         20             0       -0.202305   -2.890831    0.000000
    4          8             0        1.987415   -3.057233    0.000000
    5          8             0        1.576787   -1.590963    0.000000
    6         15             0       -1.438141    0.426391    0.000000
    7          8             0        0.000000    1.034439    0.000000
    8         20             0        2.268439    0.451447    0.000000
    9         20             0       -0.757597    3.370840    0.000000
 ---------------------------------------------------------------------

 SCF Done:  E(RB+HF-LYP) =  -2750.09678941     A.U. after   15 cycles

 The electronic state is 1-A'.
 Alpha  occ. eigenvalues -- -145.53519-145.52387-145.51076 -77.37441 -19.31338
 Alpha  occ. eigenvalues --  -19.31174 -19.29883 -19.22195 -19.19833 -15.60430
 Alpha  occ. eigenvalues --  -15.59228 -15.57931 -12.73629 -12.73587 -12.73554
 Alpha  occ. eigenvalues --  -12.72466 -12.72411 -12.72321 -12.71200 -12.71111
 Alpha  occ. eigenvalues --  -12.71006  -6.82303  -4.98799  -4.98530  -4.98436
 Alpha  occ. eigenvalues --   -1.97399  -1.96299  -1.95105  -1.25193  -1.24821
 Alpha  occ. eigenvalues --   -1.24588  -1.23987  -1.23957  -1.23555  -1.22933
 Alpha  occ. eigenvalues --   -1.22818  -1.22529  -1.18908  -1.12994  -1.11499
 Alpha  occ. eigenvalues --   -1.04987  -0.84110  -0.69616  -0.61293  -0.58642
 Alpha  occ. eigenvalues --   -0.57554  -0.53066  -0.50230  -0.49309  -0.47489
 Alpha  occ. eigenvalues --   -0.46362  -0.45543  -0.43255  -0.42187  -0.30529
 Alpha  occ. eigenvalues --   -0.28339  -0.26725
 Alpha virt. eigenvalues --   -0.20403  -0.19989  -0.17518  -0.17207  -0.14772
 Alpha virt. eigenvalues --   -0.13609  -0.11814  -0.11051  -0.10526  -0.09669
 Alpha virt. eigenvalues --   -0.08711  -0.08032  -0.07822  -0.07052  -0.06047

 Mulliken atomic charges:
              1
     1  O   -0.573022
     2  O   -0.758387
     3  Ca   1.377020
     4  O   -0.609238
     5  O   -0.682710
     6  P    0.842997
     7  O   -0.574634
     8  Ca   1.239327
     9  Ca   0.738647
 Sum of Mulliken charges=   1.00000

 Dipole moment (field-independent basis, Debye):
    X=    -0.2520    Y=     2.4911    Z=     0.0000  Tot=     2.5038
 Quadrupole moment (field-independent basis, Debye-Ang):
   XX=   -80.6765   YY=   -35.8423   ZZ=   -83.1716
   XY=    20.6260   XZ=     0.0000   YZ=     0.0000

 Normal termination of Gaussian 03 at Fri Jun 12 17:54:49 2015.
