 Gaussian 03, Revision E.01,
 Gaussian 03:  EM64T-G03RevE.01 11-Sep-2007

 ----------------------------------------------------
 # b3lyp/6-31+G(d,p) int=ultrafine pop=(ReadRadii,MK)
 ----------------------------------------------------

 ----------------------------------------
 mol_17.23.16.pdbccc_plusQ.z58216.zip.xyz
 ----------------------------------------
 Symbolic Z-matrix:
 Charge =  1 Multiplicity = 1

                         Standard orientation:
 ---------------------------------------------------------------------
 Center     Atomic     Atomic              Coordinates (Angstroms)
 Number     Number      Type              X           Y           Z
 ---------------------------------------------------------------------
    1         20             0       -2.687809   -1.096351   -0.000381
    2          8             0       -3.571519    1.060239    0.006179
    3         15             0       -2.388889    2.055419    0.000509
    4          8             0       -1.076299    1.237769   -0.007551
    5          8             0       -0.747719   -1.834951   -0.783001
    6          8             0       -0.747969   -1.829771    0.787189
    7         20             0        0.775131   -0.314251   -0.002271
    8          8             0        2.936171    0.173809   -0.003481
    9         20             0        4.987281    0.346199    0.002539
 ---------------------------------------------------------------------

 SCF Done:  E(RB+HF-LYP) =  -2750.15937482     A.U. after   10 cycles

 The electronic state is 1-A.
 Alpha  occ. eigenvalues -- -145.56864-145.46767-145.40397 -77.26194 -19.24266
 Alpha  occ. eigenvalues --  -19.24018 -19.18845 -19.18839 -19.15332 -15.63633
 Alpha  occ. eigenvalues --  -15.53665 -15.47297 -12.76849 -12.76849 -12.76718
 Alpha  occ. eigenvalues --  -12.66906 -12.66881 -12.66722 -12.60552 -12.60519
 Alpha  occ. eigenvalues --  -12.60342  -6.71826  -4.88259  -4.88027  -4.87621
 Alpha  occ. eigenvalues --   -2.00533  -1.90950  -1.84758  -1.28050  -1.28045
 Alpha  occ. eigenvalues --   -1.27153  -1.18979  -1.18691  -1.18595  -1.12885
 Alpha  occ. eigenvalues --   -1.12745  -1.12652  -1.10178  -1.04582  -1.01176
 Alpha  occ. eigenvalues --   -0.89192  -0.82641  -0.63388  -0.52558  -0.49629
 Alpha  occ. eigenvalues --   -0.49036  -0.42305  -0.41566  -0.40904  -0.40381
 Alpha  occ. eigenvalues --   -0.39449  -0.36813  -0.35554  -0.33320  -0.33256
 Alpha  occ. eigenvalues --   -0.29809  -0.27624
 Alpha virt. eigenvalues --   -0.24509  -0.16354  -0.14658  -0.14636  -0.14534
 Alpha virt. eigenvalues --   -0.13187  -0.09321  -0.09135  -0.07522  -0.06474
 Alpha virt. eigenvalues --   -0.06030  -0.05857  -0.05288  -0.05172  -0.04886

 Mulliken atomic charges:
              1
     1  Ca   1.318630
     2  O   -0.676088
     3  P    0.604713
     4  O   -0.701178
     5  O   -0.660885
     6  O   -0.661158
     7  Ca   1.449574
     8  O   -1.155761
     9  Ca   1.482155
 Sum of Mulliken charges=   1.00000

 Dipole moment (field-independent basis, Debye):
    X=    16.4554    Y=     1.4372    Z=     0.0096  Tot=    16.5181
 Quadrupole moment (field-independent basis, Debye-Ang):
   XX=    81.6283   YY=   -86.5829   ZZ=   -77.7787
   XY=    24.9623   XZ=     0.2111   YZ=     0.0392

 Normal termination of Gaussian 03 at Fri Jun 12 17:52:17 2015.
