 Gaussian 03, Revision E.01,
 Gaussian 03:  EM64T-G03RevE.01 11-Sep-2007

 ----------------------------------------------------
 # b3lyp/6-31+G(d,p) int=ultrafine pop=(ReadRadii,MK)
 ----------------------------------------------------

 --------------------------------------
 mol_17.26.26.pdbc_plusQ.z58385.zip.xyz
 --------------------------------------
 Symbolic Z-matrix:
 Charge =  1 Multiplicity = 1

                         Standard orientation:
 ---------------------------------------------------------------------
 Center     Atomic     Atomic              Coordinates (Angstroms)
 Number     Number      Type              X           Y           Z
 ---------------------------------------------------------------------
    1         20             0        2.179580    1.343619    0.000000
    2         15             0        3.720860   -1.089280    0.000000
    3          8             0        0.000000    1.134499    0.000000
    4         20             0       -2.168840    1.684569    0.000000
    5          8             0       -3.758380    0.072688    0.000000
    6          8             0       -2.435430   -0.571691    0.000000
    7          8             0       -2.370380   -2.023221    0.000000
    8         20             0       -0.220250   -1.225661    0.000000
    9          8             0        2.111350   -1.076191    0.000000
 ---------------------------------------------------------------------

 SCF Done:  E(RB+HF-LYP) =  -2749.95559500     A.U. after   19 cycles

 The electronic state is 1-A'.
 Alpha  occ. eigenvalues -- -145.53655-145.51471-145.49009 -77.26287 -19.32269
 Alpha  occ. eigenvalues --  -19.30696 -19.22657 -19.22321 -19.19815 -15.60591
 Alpha  occ. eigenvalues --  -15.58332 -15.55817 -12.73852 -12.73784 -12.73629
 Alpha  occ. eigenvalues --  -12.71592 -12.71538 -12.71376 -12.69105 -12.68996
 Alpha  occ. eigenvalues --  -12.68891  -6.72564  -4.89223  -4.88796  -4.87929
 Alpha  occ. eigenvalues --   -1.97826  -1.95563  -1.93076  -1.25727  -1.25654
 Alpha  occ. eigenvalues --   -1.24580  -1.24436  -1.23415  -1.22448  -1.21535
 Alpha  occ. eigenvalues --   -1.21114  -1.20243  -1.16193  -1.11849  -0.98949
 Alpha  occ. eigenvalues --   -0.94577  -0.82192  -0.69019  -0.53794  -0.52960
 Alpha  occ. eigenvalues --   -0.52300  -0.51360  -0.51015  -0.50222  -0.40577
 Alpha  occ. eigenvalues --   -0.39835  -0.38530  -0.35169  -0.35022  -0.34598
 Alpha  occ. eigenvalues --   -0.31440  -0.27537
 Alpha virt. eigenvalues --   -0.25805  -0.22046  -0.19443  -0.16156  -0.14676
 Alpha virt. eigenvalues --   -0.12386  -0.11646  -0.11617  -0.10887  -0.09962
 Alpha virt. eigenvalues --   -0.09220  -0.08828  -0.07643  -0.06781  -0.06130

 Mulliken atomic charges:
              1
     1  Ca   1.302387
     2  P    0.018877
     3  O   -1.366427
     4  Ca   1.447312
     5  O   -0.545228
     6  O   -0.116274
     7  O   -0.536381
     8  Ca   1.380501
     9  O   -0.584766
 Sum of Mulliken charges=   1.00000

 Dipole moment (field-independent basis, Debye):
    X=     8.5543    Y=    12.9312    Z=     0.0000  Tot=    15.5046
 Quadrupole moment (field-independent basis, Debye-Ang):
   XX=   -84.4435   YY=   -52.2590   ZZ=   -74.1334
   XY=   -15.3604   XZ=     0.0000   YZ=     0.0000

 Normal termination of Gaussian 03 at Fri Jun 12 18:01:27 2015.
