 Gaussian 03, Revision E.01,
 Gaussian 03:  EM64T-G03RevE.01 11-Sep-2007

 ----------------------------------------------------
 # b3lyp/6-31+G(d,p) int=ultrafine pop=(ReadRadii,MK)
 ----------------------------------------------------

 ----------------------------------------
 mol_17.22.54.pdbccc_plusQ.z58204.zip.xyz
 ----------------------------------------
 Symbolic Z-matrix:
 Charge =  1 Multiplicity = 1

                         Standard orientation:
 ---------------------------------------------------------------------
 Center     Atomic     Atomic              Coordinates (Angstroms)
 Number     Number      Type              X           Y           Z
 ---------------------------------------------------------------------
    1         20             0        1.054051   -1.671772   -0.138730
    2          8             0        2.067620   -0.000753    1.104410
    3          8             0        0.607710   -0.000857    1.522130
    4          8             0        0.590830    0.000673   -1.656400
    5         15             0       -1.064640    0.000782   -1.531130
    6          8             0       -1.237435   -1.284716   -0.442060
    7          8             0       -1.237096    1.285374   -0.440830
    8         20             0       -1.626730   -0.000442    1.389540
    9         20             0        1.054509    1.671738   -0.137360
 ---------------------------------------------------------------------

 SCF Done:  E(RB+HF-LYP) =  -2750.24881821     A.U. after    7 cycles

 The electronic state is 1-A.
 Alpha  occ. eigenvalues -- -145.52386-145.50181-145.50175 -77.25156 -19.25910
 Alpha  occ. eigenvalues --  -19.25457 -19.21787 -19.21787 -19.21336 -15.59145
 Alpha  occ. eigenvalues --  -15.56979 -15.56975 -12.72333 -12.72329 -12.72303
 Alpha  occ. eigenvalues --  -12.70187 -12.70184 -12.70179 -12.70176 -12.70099
 Alpha  occ. eigenvalues --  -12.70096  -6.70244  -4.86598  -4.86589  -4.86029
 Alpha  occ. eigenvalues --   -1.96323  -1.94230  -1.94164  -1.24346  -1.23878
 Alpha  occ. eigenvalues --   -1.23781  -1.22782  -1.22077  -1.21718  -1.21642
 Alpha  occ. eigenvalues --   -1.21523  -1.21224  -1.10033  -1.07329  -1.00853
 Alpha  occ. eigenvalues --   -1.00736  -0.89073  -0.63095  -0.51342  -0.51081
 Alpha  occ. eigenvalues --   -0.50979  -0.49234  -0.48447  -0.46045  -0.43794
 Alpha  occ. eigenvalues --   -0.43559  -0.38835  -0.38643  -0.38612  -0.35296
 Alpha  occ. eigenvalues --   -0.33986  -0.31700
 Alpha virt. eigenvalues --   -0.20301  -0.18388  -0.17632  -0.12783  -0.12603
 Alpha virt. eigenvalues --   -0.10902  -0.09917  -0.09096  -0.08254  -0.07948
 Alpha virt. eigenvalues --   -0.07349  -0.06562  -0.06018  -0.05817  -0.04926

 Mulliken atomic charges:
              1
     1  Ca   1.462607
     2  O   -0.643551
     3  O   -0.725445
     4  O   -1.034904
     5  P    1.083205
     6  O   -1.043803
     7  O   -1.043851
     8  Ca   1.483075
     9  Ca   1.462667
 Sum of Mulliken charges=   1.00000

 Dipole moment (field-independent basis, Debye):
    X=     0.9366    Y=    -0.0021    Z=     6.2034  Tot=     6.2738
 Quadrupole moment (field-independent basis, Debye-Ang):
   XX=   -63.6981   YY=   -44.2176   ZZ=   -80.5556
   XY=     0.0175   XZ=   -28.3203   YZ=     0.0183

 Normal termination of Gaussian 03 at Fri Jun 12 17:51:03 2015.
