 Gaussian 03, Revision E.01,
 Gaussian 03:  EM64T-G03RevE.01 11-Sep-2007

 ----------------------------------------------------
 # b3lyp/6-31+G(d,p) int=ultrafine pop=(ReadRadii,MK)
 ----------------------------------------------------

 ----------------------------------------
 mol_17.28.9.pdbcccc_plusQ.z58588.zip.xyz
 ----------------------------------------
 Symbolic Z-matrix:
 Charge =  1 Multiplicity = 1

                         Standard orientation:
 ---------------------------------------------------------------------
 Center     Atomic     Atomic              Coordinates (Angstroms)
 Number     Number      Type              X           Y           Z
 ---------------------------------------------------------------------
    1          8             0       -4.009449   -0.000193   -0.384921
    2         20             0       -1.850599   -0.001567    0.206409
    3          8             0       -0.220199   -0.000120   -1.481161
    4          8             0        0.009689   -1.276290    1.197269
    5         15             0        0.924921    0.000129    1.544919
    6         20             0        1.013318   -1.752112   -0.861171
    7          8             0        2.044761    0.001247    0.362209
    8         20             0        1.010544    1.753588   -0.860431
    9          8             0        0.007813    1.275340    1.197859
 ---------------------------------------------------------------------

 SCF Done:  E(RB+HF-LYP) =  -2750.13169441     A.U. after   18 cycles

 The electronic state is 1-A.
 Alpha  occ. eigenvalues -- -145.54372-145.54369-145.46597 -77.31609 -19.27365
 Alpha  occ. eigenvalues --  -19.26996 -19.26994 -19.24473 -19.20314 -15.61167
 Alpha  occ. eigenvalues --  -15.61165 -15.53504 -12.74377 -12.74377 -12.74343
 Alpha  occ. eigenvalues --  -12.74342 -12.74302 -12.74301 -12.66757 -12.66708
 Alpha  occ. eigenvalues --  -12.66561  -6.76676  -4.93010  -4.92992  -4.92703
 Alpha  occ. eigenvalues --   -1.98340  -1.98302  -1.90923  -1.26508  -1.26017
 Alpha  occ. eigenvalues --   -1.25954  -1.25701  -1.25624  -1.25166  -1.18954
 Alpha  occ. eigenvalues --   -1.18822  -1.18453  -1.13862  -1.07085  -1.07042
 Alpha  occ. eigenvalues --   -0.94953  -0.93751  -0.67348  -0.56559  -0.56346
 Alpha  occ. eigenvalues --   -0.54260  -0.49235  -0.48807  -0.44124  -0.43967
 Alpha  occ. eigenvalues --   -0.43252  -0.40126  -0.39692  -0.37985  -0.37054
 Alpha  occ. eigenvalues --   -0.36105  -0.33479
 Alpha virt. eigenvalues --   -0.31048  -0.22194  -0.20830  -0.15135  -0.13386
 Alpha virt. eigenvalues --   -0.13011  -0.12151  -0.11853  -0.09007  -0.08141
 Alpha virt. eigenvalues --   -0.07783  -0.06995  -0.06902  -0.06235  -0.05588

 Mulliken atomic charges:
              1
     1  O   -0.499759
     2  Ca   1.338058
     3  O   -1.199958
     4  O   -0.915956
     5  P    1.155864
     6  Ca   1.495069
     7  O   -0.952306
     8  Ca   1.495017
     9  O   -0.916029
 Sum of Mulliken charges=   1.00000

 Dipole moment (field-independent basis, Debye):
    X=     9.7089    Y=     0.0005    Z=    -6.2061  Tot=    11.5229
 Quadrupole moment (field-independent basis, Debye-Ang):
   XX=   -93.0157   YY=   -37.0317   ZZ=   -79.8905
   XY=    -0.0079   XZ=   -22.7422   YZ=    -0.0044

 Normal termination of Gaussian 03 at Fri Jun 12 18:13:05 2015.
