 Gaussian 03, Revision E.01,
 Gaussian 03:  EM64T-G03RevE.01 11-Sep-2007

 ----------------------------------------------------
 # b3lyp/6-31+G(d,p) int=ultrafine pop=(ReadRadii,MK)
 ----------------------------------------------------

 -----------------------------------------
 mol_16.4.21.pdb_plusQc.out.z51572.zip.xyz
 -----------------------------------------
 Symbolic Z-matrix:
 Charge =  1 Multiplicity = 1

                         Standard orientation:
 ---------------------------------------------------------------------
 Center     Atomic     Atomic              Coordinates (Angstroms)
 Number     Number      Type              X           Y           Z
 ---------------------------------------------------------------------
    1          8             0       -1.443910    1.272137    0.000731
    2         15             0       -2.319959   -0.002504    0.000571
    3         20             0        0.759450    1.858809   -0.000619
    4          8             0       -1.440708   -1.274773   -0.002139
    5         20             0        0.763682   -1.857331    0.000231
    6          8             0        1.714041    0.001639   -0.785529
    7          8             0        1.712671    0.001999    0.786841
 ---------------------------------------------------------------------

 SCF Done:  E(RB+HF-LYP) =  -1997.33372457     A.U. after    6 cycles

 The electronic state is 1-A.
 Alpha  occ. eigenvalues -- -145.53245-145.53243 -77.30163 -19.27956 -19.27949
 Alpha  occ. eigenvalues --  -19.25592 -19.25584 -15.60092 -15.60091 -12.73307
 Alpha  occ. eigenvalues --  -12.73305 -12.73289 -12.73287 -12.73207 -12.73204
 Alpha  occ. eigenvalues --   -6.75645  -4.92084  -4.91869  -4.91425  -1.97235
 Alpha  occ. eigenvalues --   -1.97208  -1.25764  -1.24805  -1.24791  -1.24724
 Alpha  occ. eigenvalues --   -1.24724  -1.24301  -1.13924  -1.08554  -1.08251
 Alpha  occ. eigenvalues --   -0.89521  -0.67706  -0.57282  -0.52823  -0.52601
 Alpha  occ. eigenvalues --   -0.48994  -0.47945  -0.46121  -0.45762  -0.43900
 Alpha  occ. eigenvalues --   -0.40702  -0.37191  -0.34166
 Alpha virt. eigenvalues --   -0.20456  -0.19854  -0.19630  -0.14480  -0.11367
 Alpha virt. eigenvalues --   -0.11280  -0.10319  -0.09666  -0.09043  -0.07375
 Alpha virt. eigenvalues --   -0.07215  -0.06432  -0.05962  -0.05215  -0.04858

 Mulliken atomic charges:
              1
     1  O   -0.709963
     2  P    0.668779
     3  Ca   1.543979
     4  O   -0.709694
     5  Ca   1.543994
     6  O   -0.668451
     7  O   -0.668645
 Sum of Mulliken charges=   1.00000

 Dipole moment (field-independent basis, Debye):
    X=     3.1399    Y=    -0.0004    Z=    -0.0032  Tot=     3.1399
 Quadrupole moment (field-independent basis, Debye-Ang):
   XX=   -66.5033   YY=    -8.8874   ZZ=   -58.2529
   XY=    -0.0607   XZ=    -0.0102   YZ=    -0.0277

 Normal termination of Gaussian 03 at Fri Jun 12 17:48:10 2015.
