 Gaussian 03, Revision E.01,
 Gaussian 03:  EM64T-G03RevE.01 11-Sep-2007

 ----------------------------------------------------
 # b3lyp/6-31+G(d,p) int=ultrafine pop=(ReadRadii,MK)
 ----------------------------------------------------

 -----------------------------------------
 mol_17.27.14.pdbcccc_plusQ.z58481.zip.xyz
 -----------------------------------------
 Symbolic Z-matrix:
 Charge =  1 Multiplicity = 1

                         Standard orientation:
 ---------------------------------------------------------------------
 Center     Atomic     Atomic              Coordinates (Angstroms)
 Number     Number      Type              X           Y           Z
 ---------------------------------------------------------------------
    1          8             0       -0.591589    0.009647   -1.655481
    2          8             0        1.241538    1.283931   -0.435911
    3         20             0       -1.047843    1.675456   -0.130841
    4          8             0       -2.066859    0.001444    1.106039
    5          8             0       -0.606419   -0.004333    1.520709
    6         20             0       -1.060796   -1.668764   -0.144891
    7         15             0        1.063941    0.004070   -1.531201
    8          8             0        1.232863   -1.286279   -0.447691
    9         20             0        1.626871   -0.011509    1.389069
 ---------------------------------------------------------------------

 SCF Done:  E(RB+HF-LYP) =  -2750.24881672     A.U. after    7 cycles

 The electronic state is 1-A.
 Alpha  occ. eigenvalues -- -145.52375-145.50203-145.50154 -77.25152 -19.25906
 Alpha  occ. eigenvalues --  -19.25455 -19.21784 -19.21782 -19.21332 -15.59133
 Alpha  occ. eigenvalues --  -15.57001 -15.56954 -12.72322 -12.72317 -12.72291
 Alpha  occ. eigenvalues --  -12.70209 -12.70201 -12.70162 -12.70154 -12.70122
 Alpha  occ. eigenvalues --  -12.70075  -6.70240  -4.86594  -4.86586  -4.86025
 Alpha  occ. eigenvalues --   -1.96313  -1.94236  -1.94159  -1.24341  -1.23869
 Alpha  occ. eigenvalues --   -1.23772  -1.22780  -1.22077  -1.21719  -1.21639
 Alpha  occ. eigenvalues --   -1.21522  -1.21224  -1.10042  -1.07326  -1.00851
 Alpha  occ. eigenvalues --   -1.00733  -0.89065  -0.63092  -0.51346  -0.51078
 Alpha  occ. eigenvalues --   -0.50978  -0.49235  -0.48453  -0.46043  -0.43789
 Alpha  occ. eigenvalues --   -0.43558  -0.38834  -0.38641  -0.38610  -0.35290
 Alpha  occ. eigenvalues --   -0.33980  -0.31695
 Alpha virt. eigenvalues --   -0.20296  -0.18389  -0.17633  -0.12782  -0.12594
 Alpha virt. eigenvalues --   -0.10902  -0.09914  -0.09097  -0.08255  -0.07943
 Alpha virt. eigenvalues --   -0.07346  -0.06561  -0.06018  -0.05816  -0.04924

 Mulliken atomic charges:
              1
     1  O   -1.034917
     2  O   -1.043554
     3  Ca   1.462145
     4  O   -0.644220
     5  O   -0.725132
     6  Ca   1.463348
     7  P    1.083101
     8  O   -1.043741
     9  Ca   1.482971
 Sum of Mulliken charges=   1.00000

 Dipole moment (field-independent basis, Debye):
    X=    -0.9416    Y=    -0.0469    Z=     6.2024  Tot=     6.2736
 Quadrupole moment (field-independent basis, Debye-Ang):
   XX=   -63.6848   YY=   -44.2003   ZZ=   -80.5622
   XY=    -0.0331   XZ=    28.3116   YZ=     0.0624

 Normal termination of Gaussian 03 at Fri Jun 12 18:02:45 2015.
