 Gaussian 03, Revision E.01,
 Gaussian 03:  EM64T-G03RevE.01 11-Sep-2007

 ----------------------------------------------------
 # b3lyp/6-31+G(d,p) int=ultrafine pop=(ReadRadii,MK)
 ----------------------------------------------------

 ---------------------------------------
 mol_17.28.39.pdbcc_plusQ.z58562.zip.xyz
 ---------------------------------------
 Symbolic Z-matrix:
 Charge =  1 Multiplicity = 1

                         Standard orientation:
 ---------------------------------------------------------------------
 Center     Atomic     Atomic              Coordinates (Angstroms)
 Number     Number      Type              X           Y           Z
 ---------------------------------------------------------------------
    1          8             0       -2.602362    0.377955    0.000040
    2          8             0       -1.509538   -1.923553    0.000140
    3         15             0       -2.841629   -1.144685   -0.000630
    4         20             0       -1.443365    2.349967    0.000410
    5         20             0        0.731373   -2.318229    0.000400
    6         20             0        2.415337    1.205754   -0.000400
    7          8             0        2.262770   -0.925556    0.786570
    8          8             0        2.262560   -0.925766   -0.786550
    9          8             0        0.656264    2.449471   -0.000050
 ---------------------------------------------------------------------

 SCF Done:  E(RB+HF-LYP) =  -2750.19710071     A.U. after    8 cycles

 The electronic state is 1-A.
 Alpha  occ. eigenvalues -- -145.50252-145.49520-145.43945 -77.30077 -19.27868
 Alpha  occ. eigenvalues --  -19.27705 -19.22483 -19.22478 -19.12211 -15.57115
 Alpha  occ. eigenvalues --  -15.56422 -15.50919 -12.70352 -12.70332 -12.70185
 Alpha  occ. eigenvalues --  -12.69675 -12.69629 -12.69458 -12.64144 -12.64140
 Alpha  occ. eigenvalues --  -12.63954  -6.75553  -4.92000  -4.91778  -4.91332
 Alpha  occ. eigenvalues --   -1.94321  -1.93663  -1.88348  -1.22292  -1.22018
 Alpha  occ. eigenvalues --   -1.21919  -1.21519  -1.21390  -1.20570  -1.16520
 Alpha  occ. eigenvalues --   -1.16135  -1.15616  -1.13712  -1.08483  -1.04679
 Alpha  occ. eigenvalues --   -0.86290  -0.86243  -0.67764  -0.57326  -0.52570
 Alpha  occ. eigenvalues --   -0.52499  -0.45799  -0.45761  -0.44706  -0.43917
 Alpha  occ. eigenvalues --   -0.42963  -0.40394  -0.34042  -0.32609  -0.30971
 Alpha  occ. eigenvalues --   -0.30560  -0.30362
 Alpha virt. eigenvalues --   -0.19725  -0.18398  -0.17453  -0.14057  -0.12040
 Alpha virt. eigenvalues --   -0.10577  -0.10165  -0.08900  -0.08322  -0.08286
 Alpha virt. eigenvalues --   -0.07015  -0.06735  -0.06063  -0.06001  -0.05477

 Mulliken atomic charges:
              1
     1  O   -0.703792
     2  O   -0.701776
     3  P    0.654153
     4  Ca   1.458756
     5  Ca   1.497931
     6  Ca   1.394107
     7  O   -0.676269
     8  O   -0.676275
     9  O   -1.246834
 Sum of Mulliken charges=   1.00000

 Dipole moment (field-independent basis, Debye):
    X=    -1.9842    Y=     0.5191    Z=     0.0019  Tot=     2.0510
 Quadrupole moment (field-independent basis, Debye-Ang):
   XX=   -55.9315   YY=   -34.8340   ZZ=   -77.5253
   XY=   -11.2877   XZ=    -0.0086   YZ=    -0.0024

 Normal termination of Gaussian 03 at Fri Jun 12 18:09:55 2015.
