 Gaussian 03, Revision E.01,
 Gaussian 03:  EM64T-G03RevE.01 11-Sep-2007

 ----------------------------------------------------
 # b3lyp/6-31+G(d,p) int=ultrafine pop=(ReadRadii,MK)
 ----------------------------------------------------

 ----------------------------------------
 mol_17.28.52.pdbccc_plusQ.z58577.zip.xyz
 ----------------------------------------
 Symbolic Z-matrix:
 Charge =  1 Multiplicity = 1

                         Standard orientation:
 ---------------------------------------------------------------------
 Center     Atomic     Atomic              Coordinates (Angstroms)
 Number     Number      Type              X           Y           Z
 ---------------------------------------------------------------------
    1          8             0       -3.501159    0.716253   -0.521000
    2          8             0       -1.015109    1.688022   -0.588460
    3         15             0       -2.201099    1.154522    0.290950
    4          8             0       -1.589720   -0.419248    0.717120
    5         20             0       -3.414930   -1.444157   -0.098140
    6         20             0        0.591461    0.223721    0.112610
    7         20             0        4.741780   -0.282541   -0.136340
    8          8             0        2.808801    0.222010    0.737460
    9          8             0        2.628470   -0.614320   -0.585970
 ---------------------------------------------------------------------

 SCF Done:  E(RB+HF-LYP) =  -2750.14918029     A.U. after   18 cycles

 The electronic state is 1-A.
 Alpha  occ. eigenvalues -- -145.56502-145.51003-145.43282 -77.22300 -19.24856
 Alpha  occ. eigenvalues --  -19.24796 -19.19640 -19.18257 -19.17342 -15.63320
 Alpha  occ. eigenvalues --  -15.57900 -15.50206 -12.76565 -12.76503 -12.76422
 Alpha  occ. eigenvalues --  -12.71126 -12.71035 -12.71025 -12.63454 -12.63419
 Alpha  occ. eigenvalues --  -12.63254  -6.67374  -4.83783  -4.83652  -4.83335
 Alpha  occ. eigenvalues --   -2.00259  -1.95053  -1.87650  -1.27859  -1.27793
 Alpha  occ. eigenvalues --   -1.27548  -1.22716  -1.22620  -1.22227  -1.16101
 Alpha  occ. eigenvalues --   -1.15564  -1.15377  -1.07208  -1.04336  -0.98533
 Alpha  occ. eigenvalues --   -0.97378  -0.88672  -0.58382  -0.48165  -0.47836
 Alpha  occ. eigenvalues --   -0.47208  -0.46715  -0.45242  -0.44759  -0.41258
 Alpha  occ. eigenvalues --   -0.37967  -0.36931  -0.35450  -0.34899  -0.34590
 Alpha  occ. eigenvalues --   -0.32865  -0.25858
 Alpha virt. eigenvalues --   -0.24265  -0.19674  -0.15046  -0.14511  -0.12592
 Alpha virt. eigenvalues --   -0.11763  -0.10932  -0.10376  -0.09398  -0.07939
 Alpha virt. eigenvalues --   -0.07403  -0.06427  -0.06108  -0.05377  -0.05161

 Mulliken atomic charges:
              1
     1  O   -0.779867
     2  O   -0.782053
     3  P    0.687776
     4  O   -1.002274
     5  Ca   1.249092
     6  Ca   1.455937
     7  Ca   1.476624
     8  O   -0.646055
     9  O   -0.659181
 Sum of Mulliken charges=   1.00000

 Dipole moment (field-independent basis, Debye):
    X=    13.5388    Y=   -11.3430    Z=    -0.4093  Tot=    17.6672
 Quadrupole moment (field-independent basis, Debye-Ang):
   XX=    64.0555   YY=   -73.8443   ZZ=   -85.1144
   XY=    31.7394   XZ=    -6.7835   YZ=     4.4192

 Normal termination of Gaussian 03 at Fri Jun 12 18:11:38 2015.
