 Gaussian 03, Revision E.01,
 Gaussian 03:  EM64T-G03RevE.01 11-Sep-2007

 ----------------------------------------------------
 # b3lyp/6-31+G(d,p) int=ultrafine pop=(ReadRadii,MK)
 ----------------------------------------------------

 --------------------------------------
 mol_17.27.17.pdbc_plusQ.z58484.zip.xyz
 --------------------------------------
 Symbolic Z-matrix:
 Charge =  1 Multiplicity = 1

                         Standard orientation:
 ---------------------------------------------------------------------
 Center     Atomic     Atomic              Coordinates (Angstroms)
 Number     Number      Type              X           Y           Z
 ---------------------------------------------------------------------
    1          8             0       -2.602657    0.378171    0.000152
    2          8             0        0.656313    2.448521   -0.000128
    3         20             0       -1.443327    2.350021    0.000002
    4         15             0       -2.841897   -1.144439   -0.000068
    5          8             0       -1.509737   -1.923159    0.000032
    6         20             0        0.731143   -2.318109   -0.000028
    7          8             0        2.262553   -0.925749    0.786572
    8          8             0        2.262713   -0.925799   -0.786468
    9         20             0        2.415933    1.205621    0.000012
 ---------------------------------------------------------------------

 SCF Done:  E(RB+HF-LYP) =  -2750.19710324     A.U. after    8 cycles

 The electronic state is 1-A.
 Alpha  occ. eigenvalues -- -145.50247-145.49521-145.43947 -77.30079 -19.27866
 Alpha  occ. eigenvalues --  -19.27702 -19.22480 -19.22475 -19.12215 -15.57110
 Alpha  occ. eigenvalues --  -15.56423 -15.50920 -12.70348 -12.70327 -12.70180
 Alpha  occ. eigenvalues --  -12.69676 -12.69630 -12.69459 -12.64145 -12.64142
 Alpha  occ. eigenvalues --  -12.63956  -6.75552  -4.91999  -4.91777  -4.91331
 Alpha  occ. eigenvalues --   -1.94316  -1.93664  -1.88350  -1.22288  -1.22013
 Alpha  occ. eigenvalues --   -1.21914  -1.21519  -1.21390  -1.20571  -1.16522
 Alpha  occ. eigenvalues --   -1.16137  -1.15617  -1.13710  -1.08479  -1.04679
 Alpha  occ. eigenvalues --   -0.86295  -0.86239  -0.67759  -0.57322  -0.52567
 Alpha  occ. eigenvalues --   -0.52495  -0.45798  -0.45756  -0.44705  -0.43913
 Alpha  occ. eigenvalues --   -0.42961  -0.40390  -0.34039  -0.32614  -0.30970
 Alpha  occ. eigenvalues --   -0.30563  -0.30363
 Alpha virt. eigenvalues --   -0.19720  -0.18399  -0.17451  -0.14061  -0.12037
 Alpha virt. eigenvalues --   -0.10577  -0.10163  -0.08900  -0.08320  -0.08285
 Alpha virt. eigenvalues --   -0.07013  -0.06734  -0.06064  -0.05999  -0.05476

 Mulliken atomic charges:
              1
     1  O   -0.703747
     2  O   -1.247052
     3  Ca   1.458862
     4  P    0.654075
     5  O   -0.701771
     6  Ca   1.497950
     7  O   -0.676297
     8  O   -0.676297
     9  Ca   1.394276
 Sum of Mulliken charges=   1.00000

 Dipole moment (field-independent basis, Debye):
    X=    -1.9815    Y=     0.5248    Z=    -0.0001  Tot=     2.0498
 Quadrupole moment (field-independent basis, Debye-Ang):
   XX=   -55.9161   YY=   -34.8106   ZZ=   -77.5236
   XY=   -11.2749   XZ=     0.0011   YZ=     0.0026

 Normal termination of Gaussian 03 at Fri Jun 12 18:02:58 2015.
