 Gaussian 03, Revision E.01,
 Gaussian 03:  EM64T-G03RevE.01 11-Sep-2007

 ----------------------------------------------------
 # b3lyp/6-31+G(d,p) int=ultrafine pop=(ReadRadii,MK)
 ----------------------------------------------------

 -------------------------------------
 mol_17.24.6.pdbc_plusQ.z58313.zip.xyz
 -------------------------------------
 Symbolic Z-matrix:
 Charge =  1 Multiplicity = 1

                         Standard orientation:
 ---------------------------------------------------------------------
 Center     Atomic     Atomic              Coordinates (Angstroms)
 Number     Number      Type              X           Y           Z
 ---------------------------------------------------------------------
    1          8             0       -0.717659   -1.099992    1.200439
    2          8             0       -2.184769   -0.905583    1.426529
    3          8             0       -0.755870    1.151428   -0.060491
    4         15             0       -0.366039   -0.397942   -0.214231
    5          8             0        1.191331   -0.436571   -0.330701
    6          8             0       -1.258239   -0.936452   -1.333131
    7         20             0       -3.032889    0.197617   -0.328351
    8         20             0        1.413810    1.973639    0.217309
    9         20             0        3.383691   -0.981931   -0.089341
 ---------------------------------------------------------------------

 SCF Done:  E(RB+HF-LYP) =  -2750.13332846     A.U. after   10 cycles

 The electronic state is 1-A.
 Alpha  occ. eigenvalues -- -145.54289-145.52829-145.52644 -77.33390 -19.28706
 Alpha  occ. eigenvalues --  -19.26637 -19.24312 -19.22912 -19.22708 -15.61000
 Alpha  occ. eigenvalues --  -15.59739 -15.59571 -12.74211 -12.74192 -12.74157
 Alpha  occ. eigenvalues --  -12.72959 -12.72920 -12.72827 -12.72759 -12.72748
 Alpha  occ. eigenvalues --  -12.72668  -6.77910  -4.94330  -4.94252  -4.94149
 Alpha  occ. eigenvalues --   -1.97917  -1.96794  -1.96599  -1.25911  -1.25237
 Alpha  occ. eigenvalues --   -1.25122  -1.24577  -1.24351  -1.24003  -1.23987
 Alpha  occ. eigenvalues --   -1.23838  -1.23796  -1.17206  -1.11342  -1.07276
 Alpha  occ. eigenvalues --   -1.04892  -0.91387  -0.65756  -0.57974  -0.56598
 Alpha  occ. eigenvalues --   -0.54851  -0.49827  -0.49045  -0.47156  -0.46135
 Alpha  occ. eigenvalues --   -0.45286  -0.42638  -0.41162  -0.38972  -0.34923
 Alpha  occ. eigenvalues --   -0.32004  -0.26946
 Alpha virt. eigenvalues --   -0.20858  -0.20370  -0.14743  -0.14488  -0.12516
 Alpha virt. eigenvalues --   -0.11708  -0.11442  -0.11153  -0.09801  -0.08672
 Alpha virt. eigenvalues --   -0.07714  -0.07263  -0.06960  -0.05962  -0.05327

 Mulliken atomic charges:
              1
     1  O   -0.448567
     2  O   -0.518223
     3  O   -1.093506
     4  P    2.112235
     5  O   -1.011221
     6  O   -0.864084
     7  Ca   1.407219
     8  Ca   0.759335
     9  Ca   0.656813
 Sum of Mulliken charges=   1.00000

 Dipole moment (field-independent basis, Debye):
    X=    -0.8586    Y=     6.2454    Z=    -3.3740  Tot=     7.1503
 Quadrupole moment (field-independent basis, Debye-Ang):
   XX=    -5.9960   YY=   -68.4923   ZZ=   -95.5143
   XY=   -22.1684   XZ=    11.6460   YZ=     3.4453

 Normal termination of Gaussian 03 at Fri Jun 12 17:57:11 2015.
