 Gaussian 03, Revision E.01,
 Gaussian 03:  EM64T-G03RevE.01 11-Sep-2007

 ----------------------------------------------------
 # b3lyp/6-31+G(d,p) int=ultrafine pop=(ReadRadii,MK)
 ----------------------------------------------------

 ----------------------------------------
 mol_17.24.50.pdbccc_plusQ.z58303.zip.xyz
 ----------------------------------------
 Symbolic Z-matrix:
 Charge =  1 Multiplicity = 1

                         Standard orientation:
 ---------------------------------------------------------------------
 Center     Atomic     Atomic              Coordinates (Angstroms)
 Number     Number      Type              X           Y           Z
 ---------------------------------------------------------------------
    1          8             0       -2.067639   -0.000766    1.104518
    2          8             0       -0.607319    0.000465    1.521588
    3         20             0       -1.053559    1.672078   -0.137242
    4         15             0        1.064041    0.000205   -1.531442
    5          8             0        1.237209    1.284854   -0.441632
    6          8             0       -0.591329    0.000605   -1.656192
    7         20             0       -1.054460   -1.671412   -0.138182
    8          8             0        1.236973   -1.285256   -0.442082
    9         20             0        1.626831   -0.000779    1.389528
 ---------------------------------------------------------------------

 SCF Done:  E(RB+HF-LYP) =  -2750.24881766     A.U. after    7 cycles

 The electronic state is 1-A.
 Alpha  occ. eigenvalues -- -145.52393-145.50176-145.50169 -77.25153 -19.25915
 Alpha  occ. eigenvalues --  -19.25462 -19.21786 -19.21786 -19.21335 -15.59151
 Alpha  occ. eigenvalues --  -15.56975 -15.56969 -12.72340 -12.72335 -12.72309
 Alpha  occ. eigenvalues --  -12.70183 -12.70178 -12.70174 -12.70170 -12.70095
 Alpha  occ. eigenvalues --  -12.70090  -6.70242  -4.86596  -4.86587  -4.86027
 Alpha  occ. eigenvalues --   -1.96329  -1.94226  -1.94160  -1.24351  -1.23883
 Alpha  occ. eigenvalues --   -1.23787  -1.22781  -1.22074  -1.21714  -1.21639
 Alpha  occ. eigenvalues --   -1.21519  -1.21221  -1.10029  -1.07330  -1.00855
 Alpha  occ. eigenvalues --   -1.00735  -0.89082  -0.63093  -0.51345  -0.51081
 Alpha  occ. eigenvalues --   -0.50979  -0.49235  -0.48450  -0.46045  -0.43794
 Alpha  occ. eigenvalues --   -0.43559  -0.38835  -0.38643  -0.38612  -0.35305
 Alpha  occ. eigenvalues --   -0.33994  -0.31697
 Alpha virt. eigenvalues --   -0.20305  -0.18387  -0.17630  -0.12786  -0.12604
 Alpha virt. eigenvalues --   -0.10905  -0.09919  -0.09096  -0.08253  -0.07952
 Alpha virt. eigenvalues --   -0.07351  -0.06563  -0.06018  -0.05818  -0.04924

 Mulliken atomic charges:
              1
     1  O   -0.643507
     2  O   -0.725549
     3  Ca   1.462584
     4  P    1.083273
     5  O   -1.043771
     6  O   -1.034784
     7  Ca   1.462471
     8  O   -1.043853
     9  Ca   1.483137
 Sum of Mulliken charges=   1.00000

 Dipole moment (field-independent basis, Debye):
    X=    -0.9326    Y=     0.0011    Z=     6.2106  Tot=     6.2802
 Quadrupole moment (field-independent basis, Debye-Ang):
   XX=   -63.7005   YY=   -44.2207   ZZ=   -80.5523
   XY=    -0.0032   XZ=    28.3147   YZ=     0.0029

 Normal termination of Gaussian 03 at Fri Jun 12 17:56:27 2015.
