 Gaussian 03, Revision E.01,
 Gaussian 03:  EM64T-G03RevE.01 11-Sep-2007

 ----------------------------------------------------
 # b3lyp/6-31+G(d,p) int=ultrafine pop=(ReadRadii,MK)
 ----------------------------------------------------

 --------------------------------------
 mol_17.22.44.pdbc_plusQ.z58194.zip.xyz
 --------------------------------------
 Symbolic Z-matrix:
 Charge =  1 Multiplicity = 1

                         Standard orientation:
 ---------------------------------------------------------------------
 Center     Atomic     Atomic              Coordinates (Angstroms)
 Number     Number      Type              X           Y           Z
 ---------------------------------------------------------------------
    1          8             0       -0.727681    0.258830   -0.939619
    2          8             0       -1.476889    1.352631   -0.180309
    3          8             0        0.917699    0.095608    1.035811
    4         15             0       -0.003502   -0.855801    0.200381
    5          8             0        0.896287   -1.720042   -0.677369
    6          8             0       -1.242673   -1.456969    0.867321
    7         20             0       -2.970811   -0.371517   -0.111529
    8         20             0        2.943148   -0.650064   -0.160049
    9         20             0        0.683592    2.251408    0.078961
 ---------------------------------------------------------------------

 SCF Done:  E(RB+HF-LYP) =  -2750.16900952     A.U. after   14 cycles

 The electronic state is 1-A.
 Alpha  occ. eigenvalues -- -145.55398-145.51929-145.51329 -77.34444 -19.34002
 Alpha  occ. eigenvalues --  -19.30108 -19.25593 -19.24953 -19.24258 -15.62213
 Alpha  occ. eigenvalues --  -15.58839 -15.58225 -12.75446 -12.75364 -12.75357
 Alpha  occ. eigenvalues --  -12.72049 -12.72011 -12.71946 -12.71446 -12.71385
 Alpha  occ. eigenvalues --  -12.71338  -6.78929  -4.95454  -4.95194  -4.95138
 Alpha  occ. eigenvalues --   -1.99195  -1.95853  -1.95310  -1.27401  -1.26740
 Alpha  occ. eigenvalues --   -1.26494  -1.23753  -1.23316  -1.23161  -1.23099
 Alpha  occ. eigenvalues --   -1.22755  -1.22655  -1.18925  -1.13391  -1.07793
 Alpha  occ. eigenvalues --   -1.06519  -0.97046  -0.66831  -0.59800  -0.57397
 Alpha  occ. eigenvalues --   -0.56797  -0.53847  -0.52815  -0.47739  -0.46982
 Alpha  occ. eigenvalues --   -0.45291  -0.45025  -0.42671  -0.40939  -0.40355
 Alpha  occ. eigenvalues --   -0.40271  -0.25222
 Alpha virt. eigenvalues --   -0.22440  -0.19371  -0.16271  -0.13616  -0.13170
 Alpha virt. eigenvalues --   -0.12651  -0.12037  -0.10985  -0.10547  -0.09319
 Alpha virt. eigenvalues --   -0.08506  -0.07236  -0.06720  -0.06239  -0.05338

 Mulliken atomic charges:
              1
     1  O   -0.541478
     2  O   -0.638012
     3  O   -0.916090
     4  P    1.782213
     5  O   -0.794763
     6  O   -0.835241
     7  Ca   1.262810
     8  Ca   0.742832
     9  Ca   0.937728
 Sum of Mulliken charges=   1.00000

 Dipole moment (field-independent basis, Debye):
    X=    -4.7493    Y=     2.5804    Z=    -0.4918  Tot=     5.4274
 Quadrupole moment (field-independent basis, Debye-Ang):
   XX=   -17.6535   YY=   -75.5781   ZZ=   -91.6420
   XY=    -3.1455   XZ=     3.1556   YZ=     3.9854

 Normal termination of Gaussian 03 at Fri Jun 12 17:51:59 2015.
