 Gaussian 03, Revision E.01,
 Gaussian 03:  EM64T-G03RevE.01 11-Sep-2007

 ----------------------------------------------------
 # b3lyp/6-31+G(d,p) int=ultrafine pop=(ReadRadii,MK)
 ----------------------------------------------------

 -----------------------------------------
 mol_16.5.15.pdbc_plusQ.out.z51621.zip.xyz
 -----------------------------------------
 Symbolic Z-matrix:
 Charge =  1 Multiplicity = 1

                         Standard orientation:
 ---------------------------------------------------------------------
 Center     Atomic     Atomic              Coordinates (Angstroms)
 Number     Number      Type              X           Y           Z
 ---------------------------------------------------------------------
    1          8             0       -2.487921   -1.239863    0.000262
    2         15             0       -3.420371    0.000427   -0.000048
    3          8             0       -2.487152    1.240127   -0.000268
    4         20             0       -0.488061   -0.000493    0.000062
    5          8             0        1.677479    0.000118    0.787802
    6          8             0        1.677449   -0.000722   -0.787768
    7         20             0        3.701399    0.000308   -0.000038
 ---------------------------------------------------------------------

 SCF Done:  E(RB+HF-LYP) =  -1997.29959316     A.U. after    6 cycles

 The electronic state is 1-A.
 Alpha  occ. eigenvalues -- -145.61307-145.47820 -77.25120 -19.28177 -19.28172
 Alpha  occ. eigenvalues --  -19.23098 -19.23096 -15.68065 -15.54721 -12.81314
 Alpha  occ. eigenvalues --  -12.81251 -12.81181 -12.67969 -12.67941 -12.67774
 Alpha  occ. eigenvalues --   -6.70872  -4.87304  -4.87053  -4.86668  -2.04907
 Alpha  occ. eigenvalues --   -1.92035  -1.32456  -1.32381  -1.32127  -1.20436
 Alpha  occ. eigenvalues --   -1.19897  -1.19700  -1.11032  -1.08923  -1.03451
 Alpha  occ. eigenvalues --   -0.92087  -0.61809  -0.51533  -0.50973  -0.50585
 Alpha  occ. eigenvalues --   -0.48643  -0.48443  -0.48207  -0.40453  -0.40221
 Alpha  occ. eigenvalues --   -0.38750  -0.36543  -0.36216
 Alpha virt. eigenvalues --   -0.26770  -0.17586  -0.16698  -0.15602  -0.14690
 Alpha virt. eigenvalues --   -0.13205  -0.12486  -0.08761  -0.08296  -0.07807
 Alpha virt. eigenvalues --   -0.06076  -0.06005  -0.05734  -0.05253  -0.04044

 Mulliken atomic charges:
              1
     1  O   -0.637177
     2  P    0.477376
     3  O   -0.637155
     4  Ca   1.513719
     5  O   -0.649223
     6  O   -0.649220
     7  Ca   1.581679
 Sum of Mulliken charges=   1.00000

 Dipole moment (field-independent basis, Debye):
    X=    21.1326    Y=     0.0013    Z=     0.0000  Tot=    21.1326
 Quadrupole moment (field-independent basis, Debye-Ang):
   XX=    29.9838   YY=   -65.5087   ZZ=   -58.2807
   XY=     0.0103   XZ=    -0.0015   YZ=     0.0002

 Normal termination of Gaussian 03 at Fri Jun 12 17:49:18 2015.
