 Gaussian 03, Revision E.01,
 Gaussian 03:  EM64T-G03RevE.01 11-Sep-2007

 ----------------------------------------------------
 # b3lyp/6-31+G(d,p) int=ultrafine pop=(ReadRadii,MK)
 ----------------------------------------------------

 ----------------------------------------
 mol_17.28.55.pdbccc_plusQ.z58580.zip.xyz
 ----------------------------------------
 Symbolic Z-matrix:
 Charge =  1 Multiplicity = 1

                         Standard orientation:
 ---------------------------------------------------------------------
 Center     Atomic     Atomic              Coordinates (Angstroms)
 Number     Number      Type              X           Y           Z
 ---------------------------------------------------------------------
    1          8             0       -0.521787   -0.169441    1.303639
    2          8             0       -2.812057    0.819309   -0.553791
    3         15             0        0.574683   -0.600821    0.280569
    4          8             0        1.953673   -1.098450    0.828869
    5          8             0       -0.072877   -1.563801   -0.734411
    6         20             0       -2.318877   -1.232061   -0.177191
    7         20             0       -1.116887    1.881759    0.176149
    8         20             0        3.183313    0.272350   -0.369521
    9          8             0        1.006643    0.833800   -0.443971
 ---------------------------------------------------------------------

 SCF Done:  E(RB+HF-LYP) =  -2750.26901459     A.U. after    8 cycles

 The electronic state is 1-A.
 Alpha  occ. eigenvalues -- -145.53862-145.50377-145.49133 -77.31103 -19.24074
 Alpha  occ. eigenvalues --  -19.23758 -19.22032 -19.20902 -19.18589 -15.60746
 Alpha  occ. eigenvalues --  -15.57196 -15.55989 -12.73974 -12.73903 -12.73868
 Alpha  occ. eigenvalues --  -12.70425 -12.70409 -12.70285 -12.69216 -12.69188
 Alpha  occ. eigenvalues --  -12.69078  -6.75472  -4.91913  -4.91795  -4.91751
 Alpha  occ. eigenvalues --   -1.97899  -1.94311  -1.93229  -1.25674  -1.25484
 Alpha  occ. eigenvalues --   -1.25177  -1.22353  -1.21906  -1.21598  -1.21001
 Alpha  occ. eigenvalues --   -1.20846  -1.20350  -1.12681  -1.04549  -1.03713
 Alpha  occ. eigenvalues --   -1.02514  -0.91631  -0.62601  -0.54023  -0.53471
 Alpha  occ. eigenvalues --   -0.52648  -0.46943  -0.44747  -0.44041  -0.42407
 Alpha  occ. eigenvalues --   -0.41947  -0.39393  -0.38038  -0.37127  -0.36587
 Alpha  occ. eigenvalues --   -0.34896  -0.34626
 Alpha virt. eigenvalues --   -0.21754  -0.18352  -0.17059  -0.12956  -0.12127
 Alpha virt. eigenvalues --   -0.10102  -0.10040  -0.09183  -0.08498  -0.07818
 Alpha virt. eigenvalues --   -0.07106  -0.06543  -0.05572  -0.05318  -0.04891

 Mulliken atomic charges:
              1
     1  O   -1.038939
     2  O   -1.345936
     3  P    1.800148
     4  O   -0.881440
     5  O   -0.890627
     6  Ca   1.436655
     7  Ca   1.456109
     8  Ca   1.587364
     9  O   -1.123334
 Sum of Mulliken charges=   1.00000

 Dipole moment (field-independent basis, Debye):
    X=    14.4779    Y=     4.6827    Z=    -0.7212  Tot=    15.2334
 Quadrupole moment (field-independent basis, Debye-Ang):
   XX=   -12.2649   YY=   -49.2000   ZZ=   -83.3010
   XY=    32.0695   XZ=   -20.4138   YZ=     7.3488

 Normal termination of Gaussian 03 at Fri Jun 12 18:10:37 2015.
