 Gaussian 03, Revision E.01,
 Gaussian 03:  EM64T-G03RevE.01 11-Sep-2007

 ----------------------------------------------------
 # b3lyp/6-31+G(d,p) int=ultrafine pop=(ReadRadii,MK)
 ----------------------------------------------------

 ---------------------------------------
 mol_17.29.29.pdbcc_plusQ.z58610.zip.xyz
 ---------------------------------------
 Symbolic Z-matrix:
 Charge =  1 Multiplicity = 1

                         Standard orientation:
 ---------------------------------------------------------------------
 Center     Atomic     Atomic              Coordinates (Angstroms)
 Number     Number      Type              X           Y           Z
 ---------------------------------------------------------------------
    1         20             0        2.016012   -1.745557   -0.018859
    2          8             0        2.875310    0.176404    0.254871
    3         20             0        1.713778    1.946153    0.105411
    4         15             0       -0.445130   -0.069189   -0.944569
    5          8             0       -2.113530   -0.300400   -1.214379
    6          8             0       -3.114391    0.671639   -0.623819
    7          8             0       -0.251229   -1.363199    0.085251
    8         20             0       -2.184050   -0.272531    1.152501
    9          8             0       -0.425891    1.125121    0.171511
 ---------------------------------------------------------------------

 SCF Done:  E(RB+HF-LYP) =  -2750.11774721     A.U. after    9 cycles

 The electronic state is 1-A.
 Alpha  occ. eigenvalues -- -145.52030-145.50135-145.50000 -77.26819 -19.27041
 Alpha  occ. eigenvalues --  -19.23363 -19.23087 -19.21555 -19.13356 -15.58789
 Alpha  occ. eigenvalues --  -15.57007 -15.56883 -12.72008 -12.71999 -12.71908
 Alpha  occ. eigenvalues --  -12.70262 -12.70187 -12.70137 -12.70077 -12.70066
 Alpha  occ. eigenvalues --  -12.69948  -6.72118  -4.88491  -4.88433  -4.87949
 Alpha  occ. eigenvalues --   -1.95843  -1.94210  -1.94096  -1.24335  -1.23293
 Alpha  occ. eigenvalues --   -1.22956  -1.22081  -1.21964  -1.21852  -1.21618
 Alpha  occ. eigenvalues --   -1.21251  -1.20761  -1.12238  -1.06807  -1.02503
 Alpha  occ. eigenvalues --   -0.89737  -0.87636  -0.64499  -0.53849  -0.52076
 Alpha  occ. eigenvalues --   -0.51863  -0.46760  -0.45782  -0.42945  -0.42774
 Alpha  occ. eigenvalues --   -0.38459  -0.35819  -0.33768  -0.32243  -0.31972
 Alpha  occ. eigenvalues --   -0.31709  -0.30414
 Alpha virt. eigenvalues --   -0.20010  -0.18998  -0.18428  -0.12841  -0.12140
 Alpha virt. eigenvalues --   -0.11162  -0.10331  -0.10085  -0.09329  -0.08690
 Alpha virt. eigenvalues --   -0.07751  -0.07644  -0.07113  -0.06323  -0.05694

 Mulliken atomic charges:
              1
     1  Ca   1.439483
     2  O   -1.178477
     3  Ca   1.430255
     4  P    0.779400
     5  O   -0.491866
     6  O   -0.492532
     7  O   -0.948642
     8  Ca   1.400308
     9  O   -0.937928
 Sum of Mulliken charges=   1.00000

 Dipole moment (field-independent basis, Debye):
    X=     4.9678    Y=    -1.7034    Z=     8.6782  Tot=    10.1436
 Quadrupole moment (field-independent basis, Debye-Ang):
   XX=   -75.2049   YY=   -34.6913   ZZ=   -68.0814
   XY=     4.3927   XZ=   -29.7822   YZ=    -0.7704

 Normal termination of Gaussian 03 at Fri Jun 12 18:12:55 2015.
