 Gaussian 03, Revision E.01,
 Gaussian 03:  EM64T-G03RevE.01 11-Sep-2007

 ----------------------------------------------------
 # b3lyp/6-31+G(d,p) int=ultrafine pop=(ReadRadii,MK)
 ----------------------------------------------------

 ---------------------------------------
 mol_17.25.10.pdbcc_plusQ.z58318.zip.xyz
 ---------------------------------------
 Symbolic Z-matrix:
 Charge =  1 Multiplicity = 1

                         Standard orientation:
 ---------------------------------------------------------------------
 Center     Atomic     Atomic              Coordinates (Angstroms)
 Number     Number      Type              X           Y           Z
 ---------------------------------------------------------------------
    1          8             0        1.237132   -1.284658   -0.443892
    2          8             0       -2.067650   -0.000743    1.104098
    3          8             0       -0.607870   -0.003801    1.522348
    4         20             0       -1.053623    1.672539   -0.135482
    5          8             0       -0.591100    0.002669   -1.656422
    6          8             0        1.237438    1.285252   -0.439172
    7         15             0        1.064240    0.002042   -1.531652
    8         20             0        1.627010   -0.002217    1.389518
    9         20             0       -1.054747   -1.671341   -0.140082
 ---------------------------------------------------------------------

 SCF Done:  E(RB+HF-LYP) =  -2750.24881737     A.U. after    7 cycles

 The electronic state is 1-A.
 Alpha  occ. eigenvalues -- -145.52388-145.50183-145.50172 -77.25157 -19.25908
 Alpha  occ. eigenvalues --  -19.25457 -19.21784 -19.21783 -19.21335 -15.59146
 Alpha  occ. eigenvalues --  -15.56981 -15.56972 -12.72335 -12.72330 -12.72304
 Alpha  occ. eigenvalues --  -12.70190 -12.70181 -12.70181 -12.70172 -12.70102
 Alpha  occ. eigenvalues --  -12.70093  -6.70244  -4.86598  -4.86590  -4.86030
 Alpha  occ. eigenvalues --   -1.96324  -1.94230  -1.94164  -1.24345  -1.23878
 Alpha  occ. eigenvalues --   -1.23782  -1.22782  -1.22076  -1.21717  -1.21641
 Alpha  occ. eigenvalues --   -1.21522  -1.21224  -1.10030  -1.07324  -1.00852
 Alpha  occ. eigenvalues --   -1.00726  -0.89071  -0.63093  -0.51339  -0.51076
 Alpha  occ. eigenvalues --   -0.50975  -0.49230  -0.48445  -0.46042  -0.43791
 Alpha  occ. eigenvalues --   -0.43554  -0.38828  -0.38641  -0.38609  -0.35295
 Alpha  occ. eigenvalues --   -0.33984  -0.31703
 Alpha virt. eigenvalues --   -0.20303  -0.18388  -0.17632  -0.12784  -0.12603
 Alpha virt. eigenvalues --   -0.10902  -0.09917  -0.09097  -0.08254  -0.07949
 Alpha virt. eigenvalues --   -0.07349  -0.06562  -0.06018  -0.05817  -0.04926

 Mulliken atomic charges:
              1
     1  O   -1.043855
     2  O   -0.643464
     3  O   -0.725571
     4  Ca   1.462670
     5  O   -1.034784
     6  O   -1.044202
     7  P    1.083296
     8  Ca   1.483189
     9  Ca   1.462722
 Sum of Mulliken charges=   1.00000

 Dipole moment (field-independent basis, Debye):
    X=    -0.9342    Y=    -0.0036    Z=     6.2050  Tot=     6.2750
 Quadrupole moment (field-independent basis, Debye-Ang):
   XX=   -63.6991   YY=   -44.2099   ZZ=   -80.5523
   XY=    -0.0352   XZ=    28.3189   YZ=     0.0509

 Normal termination of Gaussian 03 at Fri Jun 12 17:56:49 2015.
