 Gaussian 03, Revision E.01,
 Gaussian 03:  EM64T-G03RevE.01 11-Sep-2007

 ----------------------------------------------------
 # b3lyp/6-31+G(d,p) int=ultrafine pop=(ReadRadii,MK)
 ----------------------------------------------------

 ----------------------------------------
 mol_17.23.19.pdbccc_plusQ.z58219.zip.xyz
 ----------------------------------------
 Symbolic Z-matrix:
 Charge =  1 Multiplicity = 1

                         Standard orientation:
 ---------------------------------------------------------------------
 Center     Atomic     Atomic              Coordinates (Angstroms)
 Number     Number      Type              X           Y           Z
 ---------------------------------------------------------------------
    1         20             0        2.817550    0.993722    0.000029
    2          8             0        2.712501   -1.088268   -0.784761
    3          8             0        2.712371   -1.088158    0.785109
    4         20             0        0.597731   -1.309489    0.000019
    5         15             0       -3.193909   -1.029491    0.000319
    6          8             0       -3.232259    0.522039    0.000059
    7          8             0       -1.726159   -1.493790   -0.000051
    8          8             0        0.564070    1.105841   -0.000141
    9         20             0       -1.432060    1.904820   -0.000371
 ---------------------------------------------------------------------

 SCF Done:  E(RB+HF-LYP) =  -2750.20952100     A.U. after    8 cycles

 The electronic state is 1-A.
 Alpha  occ. eigenvalues -- -145.53392-145.48019-145.44977 -77.30017 -19.27966
 Alpha  occ. eigenvalues --  -19.27455 -19.19918 -19.19913 -19.17884 -15.60294
 Alpha  occ. eigenvalues --  -15.54885 -15.51854 -12.73550 -12.73502 -12.73330
 Alpha  occ. eigenvalues --  -12.68094 -12.68067 -12.67994 -12.65097 -12.65060
 Alpha  occ. eigenvalues --  -12.64930  -6.75535  -4.91979  -4.91751  -4.91315
 Alpha  occ. eigenvalues --   -1.97515  -1.92190  -1.89237  -1.25373  -1.25252
 Alpha  occ. eigenvalues --   -1.24379  -1.20505  -1.19788  -1.19389  -1.17214
 Alpha  occ. eigenvalues --   -1.17079  -1.16761  -1.13760  -1.08247  -1.02445
 Alpha  occ. eigenvalues --   -0.92459  -0.83751  -0.67349  -0.56784  -0.52828
 Alpha  occ. eigenvalues --   -0.52577  -0.45467  -0.43587  -0.43402  -0.41978
 Alpha  occ. eigenvalues --   -0.41118  -0.40742  -0.37987  -0.37312  -0.36416
 Alpha  occ. eigenvalues --   -0.30526  -0.28911
 Alpha virt. eigenvalues --   -0.21333  -0.19756  -0.18065  -0.13527  -0.13441
 Alpha virt. eigenvalues --   -0.11697  -0.10903  -0.10462  -0.08646  -0.08277
 Alpha virt. eigenvalues --   -0.07168  -0.06869  -0.06455  -0.06202  -0.05657

 Mulliken atomic charges:
              1
     1  Ca   1.443359
     2  O   -0.651276
     3  O   -0.651275
     4  Ca   1.406954
     5  P    0.666008
     6  O   -0.716043
     7  O   -0.677109
     8  O   -1.348407
     9  Ca   1.527789
 Sum of Mulliken charges=   1.00000

 Dipole moment (field-independent basis, Debye):
    X=    -1.2582    Y=    12.2053    Z=    -0.0021  Tot=    12.2700
 Quadrupole moment (field-independent basis, Debye-Ang):
   XX=   -63.3392   YY=   -46.1088   ZZ=   -77.2327
   XY=    15.9197   XZ=     0.0018   YZ=    -0.0040

 Normal termination of Gaussian 03 at Fri Jun 12 17:52:07 2015.
