 Gaussian 03, Revision E.01,
 Gaussian 03:  EM64T-G03RevE.01 11-Sep-2007

 ----------------------------------------------------
 # b3lyp/6-31+G(d,p) int=ultrafine pop=(ReadRadii,MK)
 ----------------------------------------------------

 --------------------------------------
 mol_17.26.42.pdbc_plusQ.z58453.zip.xyz
 --------------------------------------
 Symbolic Z-matrix:
 Charge =  1 Multiplicity = 1

                         Standard orientation:
 ---------------------------------------------------------------------
 Center     Atomic     Atomic              Coordinates (Angstroms)
 Number     Number      Type              X           Y           Z
 ---------------------------------------------------------------------
    1          8             0        2.055170   -0.649611    0.198201
    2          8             0        1.719191    0.807159    0.389321
    3          8             0        0.523292    2.876230   -0.797529
    4         15             0        0.258441    1.438561   -0.491739
    5          8             0       -0.802349    1.189341    0.761741
    6         20             0        0.391160   -0.586830    1.775721
    7         20             0        0.736449   -1.438400   -1.459889
    8          8             0       -0.863631   -1.647129    0.096691
    9         20             0       -2.374110   -0.084088   -0.206399
 ---------------------------------------------------------------------

 SCF Done:  E(RB+HF-LYP) =  -2750.13124359     A.U. after    8 cycles

 The electronic state is 1-A.
 Alpha  occ. eigenvalues -- -145.53974-145.52119-145.50430 -77.26139 -19.29130
 Alpha  occ. eigenvalues --  -19.26118 -19.23173 -19.19185 -19.18486 -15.60811
 Alpha  occ. eigenvalues --  -15.58966 -15.57226 -12.74063 -12.73958 -12.73920
 Alpha  occ. eigenvalues --  -12.72187 -12.72137 -12.72085 -12.70440 -12.70393
 Alpha  occ. eigenvalues --  -12.70377  -6.71384  -4.87850  -4.87668  -4.87294
 Alpha  occ. eigenvalues --   -1.97988  -1.96162  -1.94433  -1.25816  -1.25515
 Alpha  occ. eigenvalues --   -1.25009  -1.24119  -1.23774  -1.23231  -1.22631
 Alpha  occ. eigenvalues --   -1.21915  -1.21570  -1.13607  -1.06616  -1.02042
 Alpha  occ. eigenvalues --   -0.93396  -0.92327  -0.63863  -0.54899  -0.51911
 Alpha  occ. eigenvalues --   -0.50363  -0.47093  -0.46373  -0.44052  -0.39666
 Alpha  occ. eigenvalues --   -0.39302  -0.39071  -0.38525  -0.36541  -0.36194
 Alpha  occ. eigenvalues --   -0.34826  -0.31879
 Alpha virt. eigenvalues --   -0.22375  -0.20237  -0.18476  -0.15258  -0.13626
 Alpha virt. eigenvalues --   -0.12677  -0.11875  -0.11289  -0.09461  -0.09189
 Alpha virt. eigenvalues --   -0.08253  -0.07500  -0.06916  -0.06545  -0.06077

 Mulliken atomic charges:
              1
     1  O   -0.641185
     2  O   -0.285561
     3  O   -0.680966
     4  P    0.302835
     5  O   -0.789978
     6  Ca   1.468864
     7  Ca   1.425865
     8  O   -1.190802
     9  Ca   1.390929
 Sum of Mulliken charges=   1.00000

 Dipole moment (field-independent basis, Debye):
    X=    -9.0190    Y=   -11.4077    Z=    -0.3827  Tot=    14.5473
 Quadrupole moment (field-independent basis, Debye-Ang):
   XX=   -52.1437   YY=   -97.0781   ZZ=   -41.6302
   XY=   -14.8886   XZ=     1.8118   YZ=    10.2820

 Normal termination of Gaussian 03 at Fri Jun 12 18:01:06 2015.
