 Gaussian 03, Revision E.01,
 Gaussian 03:  EM64T-G03RevE.01 11-Sep-2007

 ----------------------------------------------------
 # b3lyp/6-31+G(d,p) int=ultrafine pop=(ReadRadii,MK)
 ----------------------------------------------------

 ------------------------------------------
 mol_16.4.35.pdbc_plusQc.out.z51585.zip.xyz
 ------------------------------------------
 Symbolic Z-matrix:
 Charge =  1 Multiplicity = 1

                         Standard orientation:
 ---------------------------------------------------------------------
 Center     Atomic     Atomic              Coordinates (Angstroms)
 Number     Number      Type              X           Y           Z
 ---------------------------------------------------------------------
    1          8             0        0.167788   -0.332549    1.306532
    2          8             0       -3.546241    1.370073   -0.124298
    3          8             0       -4.125782    0.176634   -0.058738
    4         20             0       -1.846692   -0.187208    0.002602
    5          8             0        0.168117   -0.853779   -1.136748
    6         15             0        1.041828   -0.809910    0.130942
    7         20             0        3.999768    0.650488   -0.095508
 ---------------------------------------------------------------------

 SCF Done:  E(RB+HF-LYP) =  -1997.15137876     A.U. after   18 cycles

 The electronic state is 1-A.
 Alpha  occ. eigenvalues -- -145.60856-145.53029 -77.31651 -19.33392 -19.33355
 Alpha  occ. eigenvalues --  -19.29465 -19.29405 -15.67776 -15.59894 -12.80942
 Alpha  occ. eigenvalues --  -12.80941 -12.80917 -12.73139 -12.73118 -12.72968
 Alpha  occ. eigenvalues --   -6.77505  -4.93912  -4.93689  -4.93374  -2.04531
 Alpha  occ. eigenvalues --   -1.97039  -1.31767  -1.31758  -1.31639  -1.27700
 Alpha  occ. eigenvalues --   -1.24800  -1.24633  -1.22110  -1.15773  -1.10009
 Alpha  occ. eigenvalues --   -0.88584  -0.68312  -0.57089  -0.56630  -0.55864
 Alpha  occ. eigenvalues --   -0.54642  -0.54248  -0.53966  -0.46396  -0.45096
 Alpha  occ. eigenvalues --   -0.44338  -0.35380  -0.30558
 Alpha virt. eigenvalues --   -0.29116  -0.23261  -0.18287  -0.18143  -0.16536
 Alpha virt. eigenvalues --   -0.14903  -0.11959  -0.11342  -0.10110  -0.08929
 Alpha virt. eigenvalues --   -0.08571  -0.06844  -0.05981  -0.05903  -0.05606

 Mulliken atomic charges:
              1
     1  O   -0.583524
     2  O   -0.257683
     3  O   -0.256371
     4  Ca   1.443369
     5  O   -0.587793
     6  P    0.402857
     7  Ca   0.839146
 Sum of Mulliken charges=   1.00000

 Dipole moment (field-independent basis, Debye):
    X=    13.8596    Y=     0.1204    Z=    -0.1923  Tot=    13.8614
 Quadrupole moment (field-independent basis, Debye-Ang):
   XX=   -10.0963   YY=   -60.7576   ZZ=   -67.8869
   XY=    18.4331   XZ=    -2.0531   YZ=    -2.0041

 Normal termination of Gaussian 03 at Fri Jun 12 17:48:53 2015.
