 Gaussian 03, Revision E.01,
 Gaussian 03:  EM64T-G03RevE.01 11-Sep-2007

 ----------------------------------------------------
 # b3lyp/6-31+G(d,p) int=ultrafine pop=(ReadRadii,MK)
 ----------------------------------------------------

 ---------------------------------------
 mol_17.23.40.pdbcc_plusQ.z58241.zip.xyz
 ---------------------------------------
 Symbolic Z-matrix:
 Charge =  1 Multiplicity = 1

                         Standard orientation:
 ---------------------------------------------------------------------
 Center     Atomic     Atomic              Coordinates (Angstroms)
 Number     Number      Type              X           Y           Z
 ---------------------------------------------------------------------
    1          8             0       -4.160459   -0.979840    0.001050
    2         15             0       -2.785479   -0.460399    0.000130
    3          8             0       -1.536468   -1.317518   -0.000250
    4          8             0        2.955922   -1.641195   -0.000220
    5         20             0        0.798362   -1.471407   -0.000500
    6         20             0        3.423850    0.425785    0.000570
    7          8             0        1.200760    0.908164    0.000160
    8         20             0       -0.528421    2.188532   -0.000330
    9          8             0       -2.471460    1.036361   -0.000330
 ---------------------------------------------------------------------

 SCF Done:  E(RB+HF-LYP) =  -2750.23671897     A.U. after   11 cycles

 The electronic state is 1-A.
 Alpha  occ. eigenvalues -- -145.54687-145.47883-145.45478 -77.35453 -19.29881
 Alpha  occ. eigenvalues --  -19.29308 -19.27349 -19.18794 -19.11037 -15.61553
 Alpha  occ. eigenvalues --  -15.54782 -15.52416 -12.74807 -12.74748 -12.74613
 Alpha  occ. eigenvalues --  -12.68021 -12.67938 -12.67863 -12.65691 -12.65601
 Alpha  occ. eigenvalues --  -12.65455  -6.80688  -4.97301  -4.96834  -4.96739
 Alpha  occ. eigenvalues --   -1.98714  -1.92072  -1.89835  -1.26528  -1.26435
 Alpha  occ. eigenvalues --   -1.25606  -1.19926  -1.19615  -1.19066  -1.18683
 Alpha  occ. eigenvalues --   -1.17911  -1.17298  -1.16566  -1.10904  -1.10186
 Alpha  occ. eigenvalues --   -0.93302  -0.85095  -0.67383  -0.59519  -0.56367
 Alpha  occ. eigenvalues --   -0.55666  -0.50017  -0.47669  -0.47373  -0.45192
 Alpha  occ. eigenvalues --   -0.42277  -0.39529  -0.38509  -0.37244  -0.30634
 Alpha  occ. eigenvalues --   -0.29209  -0.28906
 Alpha virt. eigenvalues --   -0.22712  -0.18990  -0.17385  -0.14716  -0.14076
 Alpha virt. eigenvalues --   -0.13575  -0.12013  -0.11176  -0.11025  -0.09238
 Alpha virt. eigenvalues --   -0.08414  -0.07801  -0.07578  -0.06032  -0.05771

 Mulliken atomic charges:
              1
     1  O   -0.614857
     2  P    1.543052
     3  O   -0.827375
     4  O   -1.103278
     5  Ca   1.360793
     6  Ca   1.326599
     7  O   -1.348790
     8  Ca   1.511603
     9  O   -0.847748
 Sum of Mulliken charges=   1.00000

 Dipole moment (field-independent basis, Debye):
    X=     6.2944    Y=    13.1119    Z=    -0.0017  Tot=    14.5445
 Quadrupole moment (field-independent basis, Debye-Ang):
   XX=   -73.9711   YY=   -51.9358   ZZ=   -72.9893
   XY=    15.9501   XZ=     0.0207   YZ=     0.0013

 Normal termination of Gaussian 03 at Fri Jun 12 17:53:53 2015.
