 Gaussian 03, Revision E.01,
 Gaussian 03:  EM64T-G03RevE.01 11-Sep-2007

 ----------------------------------------------------
 # b3lyp/6-31+G(d,p) int=ultrafine pop=(ReadRadii,MK)
 ----------------------------------------------------

 --------------------------------------
 mol_17.24.27.pdbc_plusQ.z58281.zip.xyz
 --------------------------------------
 Symbolic Z-matrix:
 Charge =  1 Multiplicity = 1

                         Standard orientation:
 ---------------------------------------------------------------------
 Center     Atomic     Atomic              Coordinates (Angstroms)
 Number     Number      Type              X           Y           Z
 ---------------------------------------------------------------------
    1          8             0        1.034217    0.127209   -1.345731
    2         15             0        2.490777   -0.059342   -0.623921
    3          8             0        2.426596   -1.514662   -0.058881
    4          8             0        2.083908    1.001438    0.795529
    5          8             0        0.889548    0.461839    1.534419
    6         20             0       -0.084551    1.680180   -0.098031
    7          8             0       -1.721883   -0.006589    0.017749
    8         20             0       -3.830413   -0.234497   -0.136181
    9         20             0        0.161926   -1.428870    0.324919
 ---------------------------------------------------------------------

 SCF Done:  E(RB+HF-LYP) =  -2750.12209768     A.U. after   12 cycles

 The electronic state is 1-A.
 Alpha  occ. eigenvalues -- -145.58438-145.48409-145.47006 -77.23424 -19.26443
 Alpha  occ. eigenvalues --  -19.22632 -19.20557 -19.19694 -19.18574 -15.65312
 Alpha  occ. eigenvalues --  -15.55196 -15.53808 -12.78531 -12.78522 -12.78378
 Alpha  occ. eigenvalues --  -12.68408 -12.68366 -12.68342 -12.67044 -12.67007
 Alpha  occ. eigenvalues --  -12.66905  -6.68686  -4.85099  -4.84937  -4.84572
 Alpha  occ. eigenvalues --   -2.02299  -1.92463  -1.91046  -1.29912  -1.29820
 Alpha  occ. eigenvalues --   -1.29007  -1.21186  -1.19994  -1.19814  -1.18974
 Alpha  occ. eigenvalues --   -1.18562  -1.18139  -1.10965  -1.04372  -0.99330
 Alpha  occ. eigenvalues --   -0.94900  -0.88945  -0.60959  -0.51718  -0.49084
 Alpha  occ. eigenvalues --   -0.48443  -0.45479  -0.44303  -0.40766  -0.40203
 Alpha  occ. eigenvalues --   -0.39441  -0.38380  -0.36898  -0.35697  -0.34485
 Alpha  occ. eigenvalues --   -0.32013  -0.29484
 Alpha virt. eigenvalues --   -0.26999  -0.18886  -0.18405  -0.17090  -0.15677
 Alpha virt. eigenvalues --   -0.13666  -0.10142  -0.09438  -0.09236  -0.08398
 Alpha virt. eigenvalues --   -0.07834  -0.07025  -0.06466  -0.06291  -0.05576

 Mulliken atomic charges:
              1
     1  O   -0.945753
     2  P    1.029924
     3  O   -0.830679
     4  O   -0.454515
     5  O   -0.607660
     6  Ca   1.416469
     7  O   -1.283464
     8  Ca   1.283822
     9  Ca   1.391857
 Sum of Mulliken charges=   1.00000

 Dipole moment (field-independent basis, Debye):
    X=   -23.2451    Y=     1.1768    Z=    -1.1944  Tot=    23.3055
 Quadrupole moment (field-independent basis, Debye-Ang):
   XX=   -24.2169   YY=   -49.0362   ZZ=   -89.8672
   XY=     7.3707   XZ=     0.1807   YZ=    -7.2586

 Normal termination of Gaussian 03 at Fri Jun 12 17:56:09 2015.
