 Gaussian 03, Revision E.01,
 Gaussian 03:  EM64T-G03RevE.01 11-Sep-2007

 ----------------------------------------------------
 # b3lyp/6-31+G(d,p) int=ultrafine pop=(ReadRadii,MK)
 ----------------------------------------------------

 --------------------------------------
 mol_17.26.8.pdbcc_plusQ.z58474.zip.xyz
 --------------------------------------
 Symbolic Z-matrix:
 Charge =  1 Multiplicity = 1

                         Standard orientation:
 ---------------------------------------------------------------------
 Center     Atomic     Atomic              Coordinates (Angstroms)
 Number     Number      Type              X           Y           Z
 ---------------------------------------------------------------------
    1          8             0       -1.013080   -0.298251    1.329941
    2          8             0        0.302280   -1.011151    1.270041
    3         15             0        0.673890   -0.829901   -0.369169
    4          8             0        2.130180   -1.450301   -0.445729
    5         20             0        3.226230    0.410339   -0.054229
    6          8             0        1.030560    0.828029   -0.377339
    7         20             0       -1.081820    1.792809    0.170641
    8          8             0       -2.793190    0.884799   -0.750129
    9         20             0       -2.512530   -1.161971   -0.250249
 ---------------------------------------------------------------------

 SCF Done:  E(RB+HF-LYP) =  -2750.12302173     A.U. after    9 cycles

 The electronic state is 1-A.
 Alpha  occ. eigenvalues -- -145.57070-145.47490-145.45556 -77.26969 -19.28251
 Alpha  occ. eigenvalues --  -19.24158 -19.24079 -19.22571 -19.09846 -15.63881
 Alpha  occ. eigenvalues --  -15.54323 -15.52417 -12.77116 -12.77028 -12.77018
 Alpha  occ. eigenvalues --  -12.67555 -12.67495 -12.67427 -12.65645 -12.65616
 Alpha  occ. eigenvalues --  -12.65494  -6.72187  -4.88572  -4.88536  -4.88012
 Alpha  occ. eigenvalues --   -2.00886  -1.91498  -1.89733  -1.28492  -1.28405
 Alpha  occ. eigenvalues --   -1.28008  -1.19390  -1.19170  -1.18536  -1.17640
 Alpha  occ. eigenvalues --   -1.17428  -1.16717  -1.14609  -1.07353  -1.02843
 Alpha  occ. eigenvalues --   -0.91102  -0.83976  -0.65108  -0.54558  -0.52884
 Alpha  occ. eigenvalues --   -0.52275  -0.48262  -0.47276  -0.43234  -0.41038
 Alpha  occ. eigenvalues --   -0.40276  -0.36106  -0.35027  -0.33483  -0.29715
 Alpha  occ. eigenvalues --   -0.28017  -0.27831
 Alpha virt. eigenvalues --   -0.23600  -0.17047  -0.16269  -0.14372  -0.13664
 Alpha virt. eigenvalues --   -0.11437  -0.09847  -0.08794  -0.08418  -0.07778
 Alpha virt. eigenvalues --   -0.07384  -0.06577  -0.05966  -0.05886  -0.05287

 Mulliken atomic charges:
              1
     1  O   -0.625567
     2  O   -0.382060
     3  P    0.877730
     4  O   -0.942053
     5  Ca   1.490106
     6  O   -1.042534
     7  Ca   1.388263
     8  O   -1.127025
     9  Ca   1.363141
 Sum of Mulliken charges=   1.00000

 Dipole moment (field-independent basis, Debye):
    X=     9.9071    Y=     4.1511    Z=     1.1085  Tot=    10.7987
 Quadrupole moment (field-independent basis, Debye-Ang):
   XX=   -14.0803   YY=   -55.1537   ZZ=   -88.1487
   XY=    38.4976   XZ=    -4.1143   YZ=    10.5149

 Normal termination of Gaussian 03 at Fri Jun 12 18:02:48 2015.
