 Gaussian 03, Revision E.01,
 Gaussian 03:  EM64T-G03RevE.01 11-Sep-2007

 ----------------------------------------------------
 # b3lyp/6-31+G(d,p) int=ultrafine pop=(ReadRadii,MK)
 ----------------------------------------------------

 -----------------------------------------
 mol_16.5.11.pdb_plusQc.out.z51617.zip.xyz
 -----------------------------------------
 Symbolic Z-matrix:
 Charge =  1 Multiplicity = 1

                         Standard orientation:
 ---------------------------------------------------------------------
 Center     Atomic     Atomic              Coordinates (Angstroms)
 Number     Number      Type              X           Y           Z
 ---------------------------------------------------------------------
    1          8             0        3.246799   -0.003142    0.003220
    2          8             0        0.950740    1.278029   -0.004080
    3         15             0        1.776379   -0.001311   -0.000480
    4          8             0        0.947258   -1.278331   -0.000550
    5         20             0       -1.258702   -1.893539   -0.000350
    6          8             0       -2.192331    0.001872    0.001680
    7         20             0       -1.254569    1.895151    0.000600
 ---------------------------------------------------------------------

 SCF Done:  E(RB+HF-LYP) =  -1997.36495481     A.U. after    9 cycles

 The electronic state is 1-A.
 Alpha  occ. eigenvalues -- -145.53597-145.53590 -77.35857 -19.29927 -19.29926
 Alpha  occ. eigenvalues --  -19.27561 -19.15848 -15.60452 -15.60445 -12.73702
 Alpha  occ. eigenvalues --  -12.73696 -12.73627 -12.73621 -12.73537 -12.73530
 Alpha  occ. eigenvalues --   -6.81066  -4.97684  -4.97213  -4.97116  -1.97567
 Alpha  occ. eigenvalues --   -1.97548  -1.25347  -1.25328  -1.25295  -1.25083
 Alpha  occ. eigenvalues --   -1.24704  -1.24173  -1.18396  -1.11383  -1.10398
 Alpha  occ. eigenvalues --   -0.90345  -0.67781  -0.60011  -0.56612  -0.55837
 Alpha  occ. eigenvalues --   -0.50168  -0.48054  -0.47795  -0.45412  -0.42507
 Alpha  occ. eigenvalues --   -0.36650  -0.34562  -0.34383
 Alpha virt. eigenvalues --   -0.22298  -0.20459  -0.16811  -0.14885  -0.13472
 Alpha virt. eigenvalues --   -0.12518  -0.11815  -0.10788  -0.09941  -0.08257
 Alpha virt. eigenvalues --   -0.07256  -0.06248  -0.05558  -0.05269  -0.04858

 Mulliken atomic charges:
              1
     1  O   -0.611842
     2  O   -0.860036
     3  P    1.559153
     4  O   -0.860296
     5  Ca   1.485396
     6  O   -1.197649
     7  Ca   1.485275
 Sum of Mulliken charges=   1.00000

 Dipole moment (field-independent basis, Debye):
    X=    -8.6811    Y=     0.0013    Z=    -0.0055  Tot=     8.6811
 Quadrupole moment (field-independent basis, Debye-Ang):
   XX=   -74.7193   YY=    -7.7621   ZZ=   -53.5434
   XY=     0.0714   XZ=     0.0016   YZ=     0.0313

 Normal termination of Gaussian 03 at Fri Jun 12 17:49:31 2015.
