 Gaussian 03, Revision E.01,
 Gaussian 03:  EM64T-G03RevE.01 11-Sep-2007

 ----------------------------------------------------
 # b3lyp/6-31+G(d,p) int=ultrafine pop=(ReadRadii,MK)
 ----------------------------------------------------

 ---------------------------------------
 mol_17.26.39.pdbcc_plusQ.z58450.zip.xyz
 ---------------------------------------
 Symbolic Z-matrix:
 Charge =  1 Multiplicity = 1

                         Standard orientation:
 ---------------------------------------------------------------------
 Center     Atomic     Atomic              Coordinates (Angstroms)
 Number     Number      Type              X           Y           Z
 ---------------------------------------------------------------------
    1          8             0        2.059360    0.000065   -0.101759
    2          8             0        1.628580   -0.000726    1.364931
    3          8             0       -0.667683    1.256098    0.979801
    4         15             0       -0.018720   -0.000950    1.842391
    5         20             0        0.720956    1.686022   -0.844119
    6          8             0       -0.667706   -1.257112    0.978501
    7          8             0       -0.511530    0.000888   -1.754639
    8         20             0        0.720985   -1.685128   -0.845829
    9         20             0       -2.164310    0.000134   -0.278579
 ---------------------------------------------------------------------

 SCF Done:  E(RB+HF-LYP) =  -2750.21013084     A.U. after    8 cycles

 The electronic state is 1-A.
 Alpha  occ. eigenvalues -- -145.50877-145.49978-145.49974 -77.26611 -19.28661
 Alpha  occ. eigenvalues --  -19.25246 -19.22896 -19.22896 -19.16859 -15.57715
 Alpha  occ. eigenvalues --  -15.56795 -15.56793 -12.70921 -12.70886 -12.70840
 Alpha  occ. eigenvalues --  -12.69994 -12.69993 -12.69966 -12.69966 -12.69941
 Alpha  occ. eigenvalues --  -12.69940  -6.71709  -4.88129  -4.88006  -4.87482
 Alpha  occ. eigenvalues --   -1.95023  -1.94085  -1.94030  -1.23110  -1.22774
 Alpha  occ. eigenvalues --   -1.22387  -1.22272  -1.21604  -1.21582  -1.21355
 Alpha  occ. eigenvalues --   -1.21289  -1.20982  -1.13411  -1.06843  -1.02228
 Alpha  occ. eigenvalues --   -0.93398  -0.91714  -0.64998  -0.55623  -0.52561
 Alpha  occ. eigenvalues --   -0.51434  -0.48103  -0.46966  -0.44007  -0.42102
 Alpha  occ. eigenvalues --   -0.39431  -0.38481  -0.37009  -0.36051  -0.35624
 Alpha  occ. eigenvalues --   -0.35470  -0.32659
 Alpha virt. eigenvalues --   -0.20695  -0.18355  -0.17808  -0.13792  -0.12910
 Alpha virt. eigenvalues --   -0.11311  -0.10840  -0.09447  -0.09265  -0.08195
 Alpha virt. eigenvalues --   -0.07390  -0.06437  -0.06182  -0.05880  -0.04928

 Mulliken atomic charges:
              1
     1  O   -0.650587
     2  O   -0.444168
     3  O   -1.048835
     4  P    1.050454
     5  Ca   1.490084
     6  O   -1.048839
     7  O   -1.258585
     8  Ca   1.490075
     9  Ca   1.420402
 Sum of Mulliken charges=   1.00000

 Dipole moment (field-independent basis, Debye):
    X=    -5.1144    Y=     0.0045    Z=    -8.2832  Tot=     9.7349
 Quadrupole moment (field-independent basis, Debye-Ang):
   XX=   -52.5786   YY=   -42.2352   ZZ=   -90.6004
   XY=     0.0042   XZ=    -8.8509   YZ=     0.0245

 Normal termination of Gaussian 03 at Fri Jun 12 18:01:00 2015.
