 Gaussian 03, Revision E.01,
 Gaussian 03:  EM64T-G03RevE.01 11-Sep-2007

 ----------------------------------------------------
 # b3lyp/6-31+G(d,p) int=ultrafine pop=(ReadRadii,MK)
 ----------------------------------------------------

 -----------------------------------------
 mol_17.24.21.pdbcccc_plusQ.z58276.zip.xyz
 -----------------------------------------
 Symbolic Z-matrix:
 Charge =  1 Multiplicity = 1

                         Standard orientation:
 ---------------------------------------------------------------------
 Center     Atomic     Atomic              Coordinates (Angstroms)
 Number     Number      Type              X           Y           Z
 ---------------------------------------------------------------------
    1          8             0       -0.072712   -1.563551   -0.734549
    2         15             0        0.574680   -0.600702    0.280711
    3          8             0        1.953649   -1.098364    0.829041
    4          8             0       -0.521819   -0.169540    1.303811
    5          8             0       -2.811878    0.819144   -0.553959
    6         20             0       -2.318901   -1.232227   -0.177249
    7         20             0       -1.116966    1.881871    0.176131
    8         20             0        3.183311    0.272184   -0.369669
    9          8             0        1.006622    0.834057   -0.443709
 ---------------------------------------------------------------------

 SCF Done:  E(RB+HF-LYP) =  -2750.26893905     A.U. after    8 cycles

 The electronic state is 1-A.
 Alpha  occ. eigenvalues -- -145.53852-145.50388-145.49140 -77.31105 -19.24069
 Alpha  occ. eigenvalues --  -19.23761 -19.22039 -19.20903 -19.18608 -15.60736
 Alpha  occ. eigenvalues --  -15.57207 -15.55996 -12.73964 -12.73893 -12.73858
 Alpha  occ. eigenvalues --  -12.70436 -12.70420 -12.70296 -12.69223 -12.69195
 Alpha  occ. eigenvalues --  -12.69085  -6.75473  -4.91914  -4.91796  -4.91753
 Alpha  occ. eigenvalues --   -1.97890  -1.94321  -1.93235  -1.25665  -1.25475
 Alpha  occ. eigenvalues --   -1.25168  -1.22362  -1.21916  -1.21609  -1.21008
 Alpha  occ. eigenvalues --   -1.20852  -1.20358  -1.12681  -1.04548  -1.03714
 Alpha  occ. eigenvalues --   -1.02513  -0.91649  -0.62600  -0.54022  -0.53471
 Alpha  occ. eigenvalues --   -0.52648  -0.46943  -0.44748  -0.44040  -0.42407
 Alpha  occ. eigenvalues --   -0.41948  -0.39393  -0.38039  -0.37127  -0.36604
 Alpha  occ. eigenvalues --   -0.34912  -0.34641
 Alpha virt. eigenvalues --   -0.21748  -0.18356  -0.17065  -0.12952  -0.12122
 Alpha virt. eigenvalues --   -0.10100  -0.10042  -0.09186  -0.08502  -0.07822
 Alpha virt. eigenvalues --   -0.07106  -0.06543  -0.05574  -0.05318  -0.04890

 Mulliken atomic charges:
              1
     1  O   -0.890700
     2  P    1.800031
     3  O   -0.881418
     4  O   -1.038804
     5  O   -1.346260
     6  Ca   1.436739
     7  Ca   1.456264
     8  Ca   1.587488
     9  O   -1.123340
 Sum of Mulliken charges=   1.00000

 Dipole moment (field-independent basis, Debye):
    X=    14.4792    Y=     4.6813    Z=    -0.7215  Tot=    15.2343
 Quadrupole moment (field-independent basis, Debye-Ang):
   XX=   -12.2528   YY=   -49.1870   ZZ=   -83.2996
   XY=    32.0634   XZ=   -20.4227   YZ=     7.3505

 Normal termination of Gaussian 03 at Fri Jun 12 17:55:17 2015.
