 Gaussian 03, Revision E.01,
 Gaussian 03:  EM64T-G03RevE.01 11-Sep-2007

 ----------------------------------------------------
 # b3lyp/6-31+G(d,p) int=ultrafine pop=(ReadRadii,MK)
 ----------------------------------------------------

 -----------------------------------------
 mol_17.27.52.pdbcccc_plusQ.z58518.zip.xyz
 -----------------------------------------
 Symbolic Z-matrix:
 Charge =  1 Multiplicity = 1

                         Standard orientation:
 ---------------------------------------------------------------------
 Center     Atomic     Atomic              Coordinates (Angstroms)
 Number     Number      Type              X           Y           Z
 ---------------------------------------------------------------------
    1          8             0       -0.421322    1.043610    1.404990
    2          8             0        1.551340   -1.014028   -0.880740
    3          8             0        2.114539    0.143613   -0.063120
    4         20             0        0.819780   -0.890919    1.513880
    5          8             0       -0.836929   -1.604361   -0.013430
    6         15             0       -0.119209   -1.139500   -1.427470
    7         20             0       -2.162971    0.235057    0.313280
    8          8             0       -0.640901    0.418079   -1.500440
    9         20             0        0.725907    1.915721   -0.335460
 ---------------------------------------------------------------------

 SCF Done:  E(RB+HF-LYP) =  -2750.21035611     A.U. after    8 cycles

 The electronic state is 1-A.
 Alpha  occ. eigenvalues -- -145.50963-145.50030-145.49665 -77.27047 -19.28855
 Alpha  occ. eigenvalues --  -19.25353 -19.23430 -19.23041 -19.16659 -15.57799
 Alpha  occ. eigenvalues --  -15.56855 -15.56458 -12.71008 -12.70971 -12.70922
 Alpha  occ. eigenvalues --  -12.70048 -12.70038 -12.69993 -12.69678 -12.69620
 Alpha  occ. eigenvalues --  -12.69607  -6.72141  -4.88569  -4.88429  -4.87906
 Alpha  occ. eigenvalues --   -1.95101  -1.94139  -1.93671  -1.23168  -1.22838
 Alpha  occ. eigenvalues --   -1.22454  -1.22333  -1.21695  -1.21425  -1.21270
 Alpha  occ. eigenvalues --   -1.21081  -1.20712  -1.13173  -1.07397  -1.02701
 Alpha  occ. eigenvalues --   -0.93112  -0.91570  -0.65300  -0.55842  -0.52716
 Alpha  occ. eigenvalues --   -0.51422  -0.48525  -0.47292  -0.44388  -0.42320
 Alpha  occ. eigenvalues --   -0.39788  -0.38430  -0.37058  -0.36743  -0.35863
 Alpha  occ. eigenvalues --   -0.34633  -0.32794
 Alpha virt. eigenvalues --   -0.20649  -0.18457  -0.17445  -0.13989  -0.12919
 Alpha virt. eigenvalues --   -0.11313  -0.10747  -0.09643  -0.08860  -0.08054
 Alpha virt. eigenvalues --   -0.07440  -0.06425  -0.06170  -0.05806  -0.05311

 Mulliken atomic charges:
              1
     1  O   -1.264039
     2  O   -0.487150
     3  O   -0.620929
     4  Ca   1.451529
     5  O   -1.033182
     6  P    1.074330
     7  Ca   1.421839
     8  O   -1.037020
     9  Ca   1.494623
 Sum of Mulliken charges=   1.00000

 Dipole moment (field-independent basis, Debye):
    X=    -4.9100    Y=     5.7850    Z=     5.8635  Tot=     9.5893
 Quadrupole moment (field-independent basis, Debye-Ang):
   XX=   -52.0475   YY=   -57.9867   ZZ=   -75.5048
   XY=     2.1934   XZ=     5.9726   YZ=   -22.4264

 Normal termination of Gaussian 03 at Fri Jun 12 18:06:47 2015.
