 Gaussian 03, Revision E.01,
 Gaussian 03:  EM64T-G03RevE.01 11-Sep-2007

 ----------------------------------------------------
 # b3lyp/6-31+G(d,p) int=ultrafine pop=(ReadRadii,MK)
 ----------------------------------------------------

 -------------------------------------
 mol_17.29.25.pdb_plusQ.z58606.zip.xyz
 -------------------------------------
 Symbolic Z-matrix:
 Charge =  1 Multiplicity = 1

                         Standard orientation:
 ---------------------------------------------------------------------
 Center     Atomic     Atomic              Coordinates (Angstroms)
 Number     Number      Type              X           Y           Z
 ---------------------------------------------------------------------
    1          8             0       -0.499281   -0.015893   -1.701360
    2         20             0        1.285054   -1.228736   -0.922520
    3          8             0        2.561378    0.085050    0.389730
    4          8             0        1.259896    0.758374    0.699990
    5         15             0        0.047379   -0.053411    1.763380
    6          8             0       -1.159445    0.878884    1.117110
    7         20             0       -0.085840    1.945779   -0.702270
    8          8             0       -0.166225   -1.447902    0.926940
    9         20             0       -2.033278   -0.780390   -0.270710
 ---------------------------------------------------------------------

 SCF Done:  E(RB+HF-LYP) =  -2750.19417667     A.U. after    9 cycles

 The electronic state is 1-A.
 Alpha  occ. eigenvalues -- -145.51670-145.51595-145.48706 -77.27303 -19.29099
 Alpha  occ. eigenvalues --  -19.23572 -19.23488 -19.23304 -19.17357 -15.58482
 Alpha  occ. eigenvalues --  -15.58421 -15.55554 -12.71695 -12.71658 -12.71628
 Alpha  occ. eigenvalues --  -12.71609 -12.71594 -12.71549 -12.68782 -12.68748
 Alpha  occ. eigenvalues --  -12.68648  -6.72400  -4.88806  -4.88692  -4.88158
 Alpha  occ. eigenvalues --   -1.95725  -1.95670  -1.92864  -1.23978  -1.23553
 Alpha  occ. eigenvalues --   -1.23414  -1.23063  -1.23030  -1.22529  -1.21069
 Alpha  occ. eigenvalues --   -1.20540  -1.19969  -1.13368  -1.07571  -1.03114
 Alpha  occ. eigenvalues --   -0.92328  -0.90596  -0.65539  -0.55303  -0.53395
 Alpha  occ. eigenvalues --   -0.51719  -0.49584  -0.46919  -0.44126  -0.42332
 Alpha  occ. eigenvalues --   -0.40302  -0.37805  -0.37641  -0.36832  -0.35230
 Alpha  occ. eigenvalues --   -0.33503  -0.32030
 Alpha virt. eigenvalues --   -0.20905  -0.19067  -0.17415  -0.13459  -0.12277
 Alpha virt. eigenvalues --   -0.11628  -0.10497  -0.10037  -0.08917  -0.08221
 Alpha virt. eigenvalues --   -0.07985  -0.06859  -0.06591  -0.06167  -0.05828

 Mulliken atomic charges:
              1
     1  O   -1.261528
     2  Ca   1.417418
     3  O   -0.569036
     4  O   -0.590570
     5  P    1.101826
     6  O   -1.001321
     7  Ca   1.493425
     8  O   -1.019104
     9  Ca   1.428889
 Sum of Mulliken charges=   1.00000

 Dipole moment (field-independent basis, Debye):
    X=    -6.9451    Y=    -0.1157    Z=    -8.5314  Tot=    11.0014
 Quadrupole moment (field-independent basis, Debye-Ang):
   XX=   -58.4213   YY=   -40.8456   ZZ=   -88.3278
   XY=    -0.3412   XZ=    -9.1430   YZ=    -0.2538

 Normal termination of Gaussian 03 at Fri Jun 12 18:12:32 2015.
