 Gaussian 03, Revision E.01,
 Gaussian 03:  EM64T-G03RevE.01 11-Sep-2007

 ----------------------------------------------------
 # b3lyp/6-31+G(d,p) int=ultrafine pop=(ReadRadii,MK)
 ----------------------------------------------------

 ----------------------------------------
 mol_16.4.7.pdbc_plusQ.out.z51612.zip.xyz
 ----------------------------------------
 Symbolic Z-matrix:
 Charge =  1 Multiplicity = 1

                         Standard orientation:
 ---------------------------------------------------------------------
 Center     Atomic     Atomic              Coordinates (Angstroms)
 Number     Number      Type              X           Y           Z
 ---------------------------------------------------------------------
    1          8             0       -2.181450    0.798246    0.000230
    2         15             0       -2.555179   -0.675574   -0.000300
    3          8             0       -1.183689   -1.543433    0.000560
    4          8             0        0.051361   -0.755872   -0.000130
    5         20             0        2.355101   -0.985171   -0.000060
    6          8             0        2.118540    1.111519    0.000050
    7         20             0        0.039379    1.647668    0.000000
 ---------------------------------------------------------------------

 SCF Done:  E(RB+HF-LYP) =  -1997.24345673     A.U. after    8 cycles

 The electronic state is 1-A.
 Alpha  occ. eigenvalues -- -145.53183-145.49987 -77.33164 -19.37617 -19.31253
 Alpha  occ. eigenvalues --  -19.31065 -19.14543 -15.60004 -15.56902 -12.73241
 Alpha  occ. eigenvalues --  -12.73174 -12.73107 -12.70166 -12.70097 -12.69945
 Alpha  occ. eigenvalues --   -6.78893  -4.95225  -4.95176  -4.94657  -1.97077
 Alpha  occ. eigenvalues --   -1.94164  -1.25193  -1.24774  -1.23987  -1.23734
 Alpha  occ. eigenvalues --   -1.22098  -1.21502  -1.21133  -1.14501  -0.99936
 Alpha  occ. eigenvalues --   -0.88716  -0.71620  -0.62443  -0.59521  -0.57814
 Alpha  occ. eigenvalues --   -0.50956  -0.50475  -0.46067  -0.42907  -0.40978
 Alpha  occ. eigenvalues --   -0.34587  -0.32689  -0.32619
 Alpha virt. eigenvalues --   -0.22839  -0.21677  -0.18243  -0.15499  -0.13032
 Alpha virt. eigenvalues --   -0.12202  -0.11018  -0.10843  -0.09520  -0.07752
 Alpha virt. eigenvalues --   -0.07440  -0.06874  -0.06254  -0.05611  -0.05419

 Mulliken atomic charges:
              1
     1  O   -0.692857
     2  P    0.826781
     3  O   -0.335157
     4  O   -0.590587
     5  Ca   1.431363
     6  O   -1.099713
     7  Ca   1.460170
 Sum of Mulliken charges=   1.00000

 Dipole moment (field-independent basis, Debye):
    X=     3.4268    Y=    -2.3538    Z=    -0.0019  Tot=     4.1573
 Quadrupole moment (field-independent basis, Debye-Ang):
   XX=   -38.8870   YY=   -39.5185   ZZ=   -55.1863
   XY=   -25.5822   XZ=     0.0016   YZ=     0.0005

 Normal termination of Gaussian 03 at Fri Jun 12 17:49:07 2015.
