 Gaussian 03, Revision E.01,
 Gaussian 03:  EM64T-G03RevE.01 11-Sep-2007

 ----------------------------------------------------
 # b3lyp/6-31+G(d,p) int=ultrafine pop=(ReadRadii,MK)
 ----------------------------------------------------

 --------------------------------------
 mol_17.24.56.pdbc_plusQ.z58309.zip.xyz
 --------------------------------------
 Symbolic Z-matrix:
 Charge =  1 Multiplicity = 1

                         Standard orientation:
 ---------------------------------------------------------------------
 Center     Atomic     Atomic              Coordinates (Angstroms)
 Number     Number      Type              X           Y           Z
 ---------------------------------------------------------------------
    1          8             0       -0.607589   -0.001200    1.522441
    2         20             0        1.626731   -0.000662    1.389441
    3          8             0        1.236862    1.285689   -0.440499
    4         15             0        1.064561    0.001409   -1.531189
    5          8             0        1.237480   -1.284481   -0.442359
    6          8             0       -0.590789    0.001100   -1.656519
    7         20             0       -1.054848    1.671711   -0.136859
    8          8             0       -2.067369   -0.001499    1.104411
    9         20             0       -1.053741   -1.671949   -0.139179
 ---------------------------------------------------------------------

 SCF Done:  E(RB+HF-LYP) =  -2750.24881802     A.U. after    7 cycles

 The electronic state is 1-A.
 Alpha  occ. eigenvalues -- -145.52383-145.50183-145.50176 -77.25156 -19.25909
 Alpha  occ. eigenvalues --  -19.25458 -19.21787 -19.21786 -19.21336 -15.59142
 Alpha  occ. eigenvalues --  -15.56982 -15.56976 -12.72330 -12.72325 -12.72299
 Alpha  occ. eigenvalues --  -12.70190 -12.70185 -12.70181 -12.70177 -12.70102
 Alpha  occ. eigenvalues --  -12.70097  -6.70244  -4.86598  -4.86590  -4.86029
 Alpha  occ. eigenvalues --   -1.96320  -1.94232  -1.94166  -1.24344  -1.23876
 Alpha  occ. eigenvalues --   -1.23779  -1.22783  -1.22078  -1.21719  -1.21643
 Alpha  occ. eigenvalues --   -1.21524  -1.21226  -1.10034  -1.07329  -1.00854
 Alpha  occ. eigenvalues --   -1.00734  -0.89071  -0.63095  -0.51342  -0.51080
 Alpha  occ. eigenvalues --   -0.50979  -0.49234  -0.48447  -0.46045  -0.43793
 Alpha  occ. eigenvalues --   -0.43559  -0.38835  -0.38643  -0.38612  -0.35295
 Alpha  occ. eigenvalues --   -0.33985  -0.31700
 Alpha virt. eigenvalues --   -0.20299  -0.18389  -0.17633  -0.12782  -0.12602
 Alpha virt. eigenvalues --   -0.10901  -0.09918  -0.09096  -0.08255  -0.07947
 Alpha virt. eigenvalues --   -0.07349  -0.06562  -0.06018  -0.05817  -0.04926

 Mulliken atomic charges:
              1
     1  O   -0.725420
     2  Ca   1.483035
     3  O   -1.043839
     4  P    1.083155
     5  O   -1.043885
     6  O   -1.034855
     7  Ca   1.462730
     8  O   -0.643522
     9  Ca   1.462601
 Sum of Mulliken charges=   1.00000

 Dipole moment (field-independent basis, Debye):
    X=    -0.9384    Y=    -0.0032    Z=     6.2018  Tot=     6.2724
 Quadrupole moment (field-independent basis, Debye-Ang):
   XX=   -63.6941   YY=   -44.2148   ZZ=   -80.5603
   XY=    -0.0308   XZ=    28.3189   YZ=     0.0315

 Normal termination of Gaussian 03 at Fri Jun 12 17:56:40 2015.
