 Gaussian 03, Revision E.01,
 Gaussian 03:  EM64T-G03RevE.01 11-Sep-2007

 ----------------------------------------------------
 # b3lyp/6-31+G(d,p) int=ultrafine pop=(ReadRadii,MK)
 ----------------------------------------------------

 -------------------------------------------
 mol_16.4.34.pdbcc_plusQc.out.z51584.zip.xyz
 -------------------------------------------
 Symbolic Z-matrix:
 Charge =  1 Multiplicity = 1

                         Standard orientation:
 ---------------------------------------------------------------------
 Center     Atomic     Atomic              Coordinates (Angstroms)
 Number     Number      Type              X           Y           Z
 ---------------------------------------------------------------------
    1          8             0        1.425619   -1.287853   -0.000860
    2          8             0        1.458843    1.258757    0.000420
    3          8             0       -1.713329    0.019302   -0.786050
    4          8             0       -1.712939    0.019452    0.786370
    5         20             0       -0.739056    1.865901   -0.000230
    6         15             0        2.319801   -0.026034    0.000170
    7         20             0       -0.784072   -1.850239    0.000150
 ---------------------------------------------------------------------

 SCF Done:  E(RB+HF-LYP) =  -1997.33372411     A.U. after    6 cycles

 The electronic state is 1-A.
 Alpha  occ. eigenvalues -- -145.53251-145.53241 -77.30160 -19.27994 -19.27905
 Alpha  occ. eigenvalues --  -19.25589 -19.25583 -15.60097 -15.60088 -12.73312
 Alpha  occ. eigenvalues --  -12.73303 -12.73294 -12.73285 -12.73212 -12.73202
 Alpha  occ. eigenvalues --   -6.75641  -4.92081  -4.91866  -4.91421  -1.97236
 Alpha  occ. eigenvalues --   -1.97209  -1.25764  -1.24806  -1.24792  -1.24725
 Alpha  occ. eigenvalues --   -1.24725  -1.24302  -1.13923  -1.08553  -1.08248
 Alpha  occ. eigenvalues --   -0.89520  -0.67704  -0.57280  -0.52822  -0.52599
 Alpha  occ. eigenvalues --   -0.48992  -0.47943  -0.46118  -0.45760  -0.43898
 Alpha  occ. eigenvalues --   -0.40699  -0.37190  -0.34165
 Alpha virt. eigenvalues --   -0.20456  -0.19851  -0.19631  -0.14480  -0.11367
 Alpha virt. eigenvalues --   -0.11279  -0.10319  -0.09666  -0.09043  -0.07375
 Alpha virt. eigenvalues --   -0.07215  -0.06432  -0.05961  -0.05215  -0.04857

 Mulliken atomic charges:
              1
     1  O   -0.709170
     2  O   -0.710438
     3  O   -0.668502
     4  O   -0.668597
     5  Ca   1.543925
     6  P    0.668695
     7  Ca   1.544087
 Sum of Mulliken charges=   1.00000

 Dipole moment (field-independent basis, Debye):
    X=    -3.1416    Y=     0.0064    Z=    -0.0006  Tot=     3.1416
 Quadrupole moment (field-independent basis, Debye-Ang):
   XX=   -66.4939   YY=    -8.8865   ZZ=   -58.2535
   XY=     0.6672   XZ=     0.0026   YZ=    -0.0124

 Normal termination of Gaussian 03 at Fri Jun 12 17:48:10 2015.
