 Gaussian 03, Revision E.01,
 Gaussian 03:  EM64T-G03RevE.01 11-Sep-2007

 ----------------------------------------------------
 # b3lyp/6-31+G(d,p) int=ultrafine pop=(ReadRadii,MK)
 ----------------------------------------------------

 --------------------------------------
 mol_17.23.6.pdbcc_plusQ.z58261.zip.xyz
 --------------------------------------
 Symbolic Z-matrix:
 Charge =  1 Multiplicity = 1

                         Standard orientation:
 ---------------------------------------------------------------------
 Center     Atomic     Atomic              Coordinates (Angstroms)
 Number     Number      Type              X           Y           Z
 ---------------------------------------------------------------------
    1          8             0       -1.530582   -1.307280    0.001290
    2          8             0        2.961018   -1.636434   -0.005100
    3         20             0        0.802958   -1.475382    0.009130
    4         15             0       -2.785991   -0.459379   -0.003230
    5          8             0       -4.156981   -0.989178   -0.008640
    6          8             0       -2.482090    1.039411   -0.001420
    7          8             0        1.199520    0.907108    0.005280
    8         20             0        3.422990    0.431666   -0.006900
    9         20             0       -0.532809    2.182799    0.003630
 ---------------------------------------------------------------------

 SCF Done:  E(RB+HF-LYP) =  -2750.23671439     A.U. after   11 cycles

 The electronic state is 1-A.
 Alpha  occ. eigenvalues -- -145.54663-145.47860-145.45504 -77.35465 -19.29878
 Alpha  occ. eigenvalues --  -19.29331 -19.27369 -19.18771 -19.11030 -15.61530
 Alpha  occ. eigenvalues --  -15.54760 -15.52440 -12.74784 -12.74726 -12.74590
 Alpha  occ. eigenvalues --  -12.67999 -12.67916 -12.67841 -12.65714 -12.65625
 Alpha  occ. eigenvalues --  -12.65479  -6.80702  -4.97314  -4.96847  -4.96753
 Alpha  occ. eigenvalues --   -1.98693  -1.92051  -1.89855  -1.26509  -1.26418
 Alpha  occ. eigenvalues --   -1.25584  -1.19906  -1.19597  -1.19050  -1.18692
 Alpha  occ. eigenvalues --   -1.17929  -1.17315  -1.16583  -1.10913  -1.10205
 Alpha  occ. eigenvalues --   -0.93280  -0.85090  -0.67389  -0.59526  -0.56380
 Alpha  occ. eigenvalues --   -0.55683  -0.50032  -0.47677  -0.47386  -0.45209
 Alpha  occ. eigenvalues --   -0.42295  -0.39505  -0.38484  -0.37223  -0.30633
 Alpha  occ. eigenvalues --   -0.29205  -0.28899
 Alpha virt. eigenvalues --   -0.22693  -0.18979  -0.17391  -0.14715  -0.14077
 Alpha virt. eigenvalues --   -0.13586  -0.11999  -0.11178  -0.11015  -0.09247
 Alpha virt. eigenvalues --   -0.08398  -0.07804  -0.07570  -0.06026  -0.05767

 Mulliken atomic charges:
              1
     1  O   -0.828901
     2  O   -1.103589
     3  Ca   1.361070
     4  P    1.542604
     5  O   -0.614699
     6  O   -0.845311
     7  O   -1.348436
     8  Ca   1.326543
     9  Ca   1.510719
 Sum of Mulliken charges=   1.00000

 Dipole moment (field-independent basis, Debye):
    X=     6.2671    Y=    13.0501    Z=     0.0435  Tot=    14.4770
 Quadrupole moment (field-independent basis, Debye-Ang):
   XX=   -74.1158   YY=   -51.8869   ZZ=   -72.9897
   XY=    15.9824   XZ=    -0.1315   YZ=    -0.1538

 Normal termination of Gaussian 03 at Fri Jun 12 17:54:38 2015.
