 Gaussian 03, Revision E.01,
 Gaussian 03:  EM64T-G03RevE.01 11-Sep-2007

 ----------------------------------------------------
 # b3lyp/6-31+G(d,p) int=ultrafine pop=(ReadRadii,MK)
 ----------------------------------------------------

 -----------------------------------------
 mol_17.22.37.pdbcccc_plusQ.z58191.zip.xyz
 -----------------------------------------
 Symbolic Z-matrix:
 Charge =  1 Multiplicity = 1

                         Standard orientation:
 ---------------------------------------------------------------------
 Center     Atomic     Atomic              Coordinates (Angstroms)
 Number     Number      Type              X           Y           Z
 ---------------------------------------------------------------------
    1          8             0       -1.681641    0.744161   -0.002481
    2         15             0       -3.062542   -0.015287    0.001449
    3         20             0       -0.337619    2.708530   -0.000671
    4          8             0       -2.721603   -1.508668    0.002199
    5         20             0       -0.370823   -1.564130   -0.002281
    6          8             0        1.525467   -0.965552   -1.197461
    7          8             0        2.028047   -1.710613    0.001469
    8          8             0        1.521727   -0.964002    1.197909
    9         20             0        2.736549    0.628936    0.001209
 ---------------------------------------------------------------------

 SCF Done:  E(RB+HF-LYP) =  -2750.06735236     A.U. after   10 cycles

 The electronic state is 1-A.
 Alpha  occ. eigenvalues -- -145.52965-145.52148-145.51429 -77.31704 -19.37703
 Alpha  occ. eigenvalues --  -19.30324 -19.28973 -19.28184 -19.28173 -15.59929
 Alpha  occ. eigenvalues --  -15.59048 -15.58217 -12.73115 -12.73104 -12.73016
 Alpha  occ. eigenvalues --  -12.72258 -12.72222 -12.72161 -12.71467 -12.71438
 Alpha  occ. eigenvalues --  -12.71307  -6.77324  -4.93757  -4.93529  -4.93104
 Alpha  occ. eigenvalues --   -1.96995  -1.96162  -1.95365  -1.26997  -1.24434
 Alpha  occ. eigenvalues --   -1.24424  -1.24133  -1.23607  -1.23536  -1.23282
 Alpha  occ. eigenvalues --   -1.22981  -1.22959  -1.19320  -1.15641  -1.09974
 Alpha  occ. eigenvalues --   -1.03961  -0.88894  -0.68952  -0.57984  -0.57961
 Alpha  occ. eigenvalues --   -0.56509  -0.55907  -0.55288  -0.54399  -0.46932
 Alpha  occ. eigenvalues --   -0.45818  -0.44313  -0.43171  -0.41882  -0.39637
 Alpha  occ. eigenvalues --   -0.36828  -0.28245
 Alpha virt. eigenvalues --   -0.21638  -0.20057  -0.16054  -0.15692  -0.15058
 Alpha virt. eigenvalues --   -0.13955  -0.12845  -0.11419  -0.10396  -0.09817
 Alpha virt. eigenvalues --   -0.09404  -0.08262  -0.07779  -0.07663  -0.06889

 Mulliken atomic charges:
              1
     1  O   -0.727615
     2  P    0.694329
     3  Ca   0.593748
     4  O   -0.622157
     5  Ca   1.394147
     6  O   -0.589034
     7  O   -0.058850
     8  O   -0.588798
     9  Ca   0.904229
 Sum of Mulliken charges=   1.00000

 Dipole moment (field-independent basis, Debye):
    X=     1.8850    Y=     4.4729    Z=    -0.0089  Tot=     4.8539
 Quadrupole moment (field-independent basis, Debye-Ang):
   XX=   -56.9153   YY=   -61.9765   ZZ=   -89.5450
   XY=     1.5893   XZ=     0.0413   YZ=     0.0336

 Normal termination of Gaussian 03 at Fri Jun 12 17:50:51 2015.
