 Gaussian 03, Revision E.01,
 Gaussian 03:  EM64T-G03RevE.01 11-Sep-2007

 ----------------------------------------------------
 # b3lyp/6-31+G(d,p) int=ultrafine pop=(ReadRadii,MK)
 ----------------------------------------------------

 --------------------------------------
 mol_17.23.10.pdbc_plusQ.z58211.zip.xyz
 --------------------------------------
 Symbolic Z-matrix:
 Charge =  1 Multiplicity = 1

                         Standard orientation:
 ---------------------------------------------------------------------
 Center     Atomic     Atomic              Coordinates (Angstroms)
 Number     Number      Type              X           Y           Z
 ---------------------------------------------------------------------
    1          8             0       -0.983352    1.562038   -0.000012
    2          8             0       -1.106838   -1.868182   -0.000392
    3         20             0       -3.161549   -1.431954   -0.000172
    4         15             0       -2.444473    2.028097    0.000098
    5          8             0       -3.441031    0.838865    0.000098
    6         20             0        0.451360   -0.341800   -0.000292
    7          8             0        2.641590   -0.064717    0.789518
    8          8             0        2.641840   -0.064487   -0.789332
    9         20             0        4.642660    0.091275    0.000438
 ---------------------------------------------------------------------

 SCF Done:  E(RB+HF-LYP) =  -2750.15169029     A.U. after    8 cycles

 The electronic state is 1-A.
 Alpha  occ. eigenvalues -- -145.57337-145.46393-145.39142 -77.24614 -19.23850
 Alpha  occ. eigenvalues --  -19.23845 -19.22843 -19.22262 -19.09221 -15.64099
 Alpha  occ. eigenvalues --  -15.53326 -15.46058 -12.77347 -12.77280 -12.77213
 Alpha  occ. eigenvalues --  -12.66570 -12.66508 -12.66380 -12.59323 -12.59252
 Alpha  occ. eigenvalues --  -12.59114  -6.70174  -4.86617  -4.86391  -4.85962
 Alpha  occ. eigenvalues --   -2.00992  -1.90621  -1.83542  -1.28553  -1.28500
 Alpha  occ. eigenvalues --   -1.28220  -1.18474  -1.18283  -1.17526  -1.12223
 Alpha  occ. eigenvalues --   -1.11611  -1.11272  -1.08373  -1.05502  -1.03132
 Alpha  occ. eigenvalues --   -0.87701  -0.83114  -0.61986  -0.51432  -0.47399
 Alpha  occ. eigenvalues --   -0.47294  -0.47102  -0.46060  -0.44112  -0.40300
 Alpha  occ. eigenvalues --   -0.38527  -0.35895  -0.35360  -0.31826  -0.29074
 Alpha  occ. eigenvalues --   -0.27368  -0.27174
 Alpha virt. eigenvalues --   -0.24159  -0.16241  -0.14815  -0.14692  -0.14223
 Alpha virt. eigenvalues --   -0.11679  -0.09549  -0.08793  -0.08738  -0.07403
 Alpha virt. eigenvalues --   -0.07025  -0.05548  -0.05477  -0.05210  -0.04835

 Mulliken atomic charges:
              1
     1  O   -0.678809
     2  O   -1.206753
     3  Ca   1.341110
     4  P    0.610902
     5  O   -0.719835
     6  Ca   1.425587
     7  O   -0.650804
     8  O   -0.650811
     9  Ca   1.529413
 Sum of Mulliken charges=   1.00000

 Dipole moment (field-independent basis, Debye):
    X=    13.5836    Y=    -1.8385    Z=     0.0021  Tot=    13.7074
 Quadrupole moment (field-independent basis, Debye-Ang):
   XX=    87.8357   YY=   -84.4171   ZZ=   -77.7942
   XY=    26.1714   XZ=     0.0160   YZ=    -0.0013

 Normal termination of Gaussian 03 at Fri Jun 12 17:51:06 2015.
