 Gaussian 03, Revision E.01,
 Gaussian 03:  EM64T-G03RevE.01 11-Sep-2007

 ----------------------------------------------------
 # b3lyp/6-31+G(d,p) int=ultrafine pop=(ReadRadii,MK)
 ----------------------------------------------------

 -------------------------------------
 mol_17.26.13.pdb_plusQ.z58372.zip.xyz
 -------------------------------------
 Symbolic Z-matrix:
 Charge =  1 Multiplicity = 1

                         Standard orientation:
 ---------------------------------------------------------------------
 Center     Atomic     Atomic              Coordinates (Angstroms)
 Number     Number      Type              X           Y           Z
 ---------------------------------------------------------------------
    1          8             0        0.756351   -1.249578   -0.033820
    2          8             0        0.758468    1.250412   -0.035620
    3         15             0        0.972619    0.001062    1.110470
    4          8             0        2.542929   -0.000187    1.245080
    5         20             0        2.533999   -0.001667   -1.021570
    6         20             0       -1.439952    1.800750   -0.044350
    7          8             0       -2.633051    0.000879    0.531370
    8          8             0       -2.378381    0.000349   -1.015710
    9         20             0       -1.442039   -1.800630   -0.043450
 ---------------------------------------------------------------------

 SCF Done:  E(RB+HF-LYP) =  -2750.19821008     A.U. after    7 cycles

 The electronic state is 1-A.
 Alpha  occ. eigenvalues -- -145.52887-145.49504-145.49495 -77.24301 -19.22794
 Alpha  occ. eigenvalues --  -19.22507 -19.21327 -19.21324 -19.19021 -15.59679
 Alpha  occ. eigenvalues --  -15.56366 -15.56358 -12.72862 -12.72858 -12.72845
 Alpha  occ. eigenvalues --  -12.69593 -12.69584 -12.69567 -12.69559 -12.69456
 Alpha  occ. eigenvalues --  -12.69448  -6.69589  -4.85970  -4.85894  -4.85453
 Alpha  occ. eigenvalues --   -1.96714  -1.93609  -1.93574  -1.24677  -1.23979
 Alpha  occ. eigenvalues --   -1.23940  -1.22275  -1.21280  -1.21228  -1.21052
 Alpha  occ. eigenvalues --   -1.21027  -1.20594  -1.06714  -1.05361  -0.99868
 Alpha  occ. eigenvalues --   -0.99597  -0.86449  -0.61783  -0.49597  -0.49236
 Alpha  occ. eigenvalues --   -0.48396  -0.46090  -0.44983  -0.43563  -0.42567
 Alpha  occ. eigenvalues --   -0.41979  -0.37838  -0.37836  -0.34588  -0.33872
 Alpha  occ. eigenvalues --   -0.32213  -0.31069
 Alpha virt. eigenvalues --   -0.20490  -0.17974  -0.17402  -0.13048  -0.12114
 Alpha virt. eigenvalues --   -0.11133  -0.09670  -0.08664  -0.08334  -0.07573
 Alpha virt. eigenvalues --   -0.06945  -0.06821  -0.06582  -0.06264  -0.05324

 Mulliken atomic charges:
              1
     1  O   -0.972053
     2  O   -0.971764
     3  P    0.803797
     4  O   -0.869843
     5  Ca   1.357277
     6  Ca   1.485060
     7  O   -0.658082
     8  O   -0.659786
     9  Ca   1.485394
 Sum of Mulliken charges=   1.00000

 Dipole moment (field-independent basis, Debye):
    X=     1.3287    Y=    -0.0171    Z=    -8.1483  Tot=     8.2559
 Quadrupole moment (field-independent basis, Debye-Ang):
   XX=   -62.1209   YY=   -36.3264   ZZ=   -75.9301
   XY=    -0.0004   XZ=   -28.8083   YZ=     0.0090

 Normal termination of Gaussian 03 at Fri Jun 12 17:59:28 2015.
