 Gaussian 03, Revision E.01,
 Gaussian 03:  EM64T-G03RevE.01 11-Sep-2007

 ----------------------------------------------------
 # b3lyp/6-31+G(d,p) int=ultrafine pop=(ReadRadii,MK)
 ----------------------------------------------------

 -----------------------------------------
 mol_17.25.52.pdbcccc_plusQ.z58358.zip.xyz
 -----------------------------------------
 Symbolic Z-matrix:
 Charge =  1 Multiplicity = 1

                         Standard orientation:
 ---------------------------------------------------------------------
 Center     Atomic     Atomic              Coordinates (Angstroms)
 Number     Number      Type              X           Y           Z
 ---------------------------------------------------------------------
    1          8             0       -2.595582   -0.040859    1.244471
    2          8             0       -0.652792    1.249001    0.040741
    3         15             0       -1.593922    0.000391   -0.000049
    4          8             0       -2.595882    0.041371   -1.244349
    5         20             0       -4.391552   -0.001919    0.000231
    6          8             0       -0.651452   -1.247209   -0.041249
    7          8             0        3.473398    0.001581   -0.000149
    8         20             0        5.532508   -0.002009    0.000241
    9         20             0        1.263408    0.002081   -0.000219
 ---------------------------------------------------------------------

 SCF Done:  E(RB+HF-LYP) =  -2750.24777888     A.U. after   11 cycles

 The electronic state is 1-A.
 Alpha  occ. eigenvalues -- -145.56715-145.50505-145.40385 -77.22934 -19.15156
 Alpha  occ. eigenvalues --  -19.14372 -19.14338 -19.13050 -19.13044 -15.63478
 Alpha  occ. eigenvalues --  -15.57325 -15.47339 -12.76695 -12.76695 -12.76564
 Alpha  occ. eigenvalues --  -12.70563 -12.70462 -12.70461 -12.60622 -12.60539
 Alpha  occ. eigenvalues --  -12.60355  -6.67255  -4.83632  -4.83623  -4.83563
 Alpha  occ. eigenvalues --   -2.00366  -1.94417  -1.84825  -1.27880  -1.27877
 Alpha  occ. eigenvalues --   -1.26985  -1.22061  -1.21967  -1.21526  -1.12970
 Alpha  occ. eigenvalues --   -1.12551  -1.12538  -1.03771  -0.95588  -0.94714
 Alpha  occ. eigenvalues --   -0.94131  -0.89045  -0.53996  -0.45163  -0.44408
 Alpha  occ. eigenvalues --   -0.44290  -0.37532  -0.36326  -0.34573  -0.34465
 Alpha  occ. eigenvalues --   -0.34238  -0.33755  -0.33170  -0.33154  -0.30103
 Alpha  occ. eigenvalues --   -0.29011  -0.28659
 Alpha virt. eigenvalues --   -0.24293  -0.18681  -0.14408  -0.14374  -0.13002
 Alpha virt. eigenvalues --   -0.09530  -0.08899  -0.08857  -0.07207  -0.06336
 Alpha virt. eigenvalues --   -0.05520  -0.05239  -0.04844  -0.04750  -0.04452

 Mulliken atomic charges:
              1
     1  O   -0.972931
     2  O   -0.939052
     3  P    1.698185
     4  O   -0.973405
     5  Ca   1.461339
     6  O   -0.938845
     7  O   -1.156180
     8  Ca   1.414181
     9  Ca   1.406708
 Sum of Mulliken charges=   1.00000

 Dipole moment (field-independent basis, Debye):
    X=    12.1672    Y=    -0.0301    Z=     0.0061  Tot=    12.1672
 Quadrupole moment (field-independent basis, Debye-Ang):
   XX=   190.0062   YY=   -86.1586   ZZ=   -86.3860
   XY=    -0.0195   XZ=    -0.0036   YZ=     0.0096

 Normal termination of Gaussian 03 at Fri Jun 12 17:59:00 2015.
