 Gaussian 03, Revision E.01,
 Gaussian 03:  EM64T-G03RevE.01 11-Sep-2007

 ----------------------------------------------------
 # b3lyp/6-31+G(d,p) int=ultrafine pop=(ReadRadii,MK)
 ----------------------------------------------------

 -------------------------------------
 mol_17.29.30.pdb_plusQ.z58612.zip.xyz
 -------------------------------------
 Symbolic Z-matrix:
 Charge =  1 Multiplicity = 1

                         Standard orientation:
 ---------------------------------------------------------------------
 Center     Atomic     Atomic              Coordinates (Angstroms)
 Number     Number      Type              X           Y           Z
 ---------------------------------------------------------------------
    1         20             0        2.015970   -1.745481   -0.018902
    2          8             0        2.875580    0.176308    0.255008
    3         20             0        1.713920    1.945989    0.105468
    4         15             0       -0.445210   -0.069031   -0.944592
    5          8             0       -2.113650   -0.300061   -1.214402
    6          8             0       -3.114280    0.671910   -0.623672
    7          8             0       -0.251310   -1.363291    0.084848
    8         20             0       -2.184210   -0.272681    1.152478
    9          8             0       -0.425770    1.124999    0.171718
 ---------------------------------------------------------------------

 SCF Done:  E(RB+HF-LYP) =  -2750.11774720     A.U. after    9 cycles

 The electronic state is 1-A.
 Alpha  occ. eigenvalues -- -145.52033-145.50135-145.50000 -77.26819 -19.27042
 Alpha  occ. eigenvalues --  -19.23364 -19.23088 -19.21555 -19.13356 -15.58792
 Alpha  occ. eigenvalues --  -15.57007 -15.56883 -12.72010 -12.72001 -12.71911
 Alpha  occ. eigenvalues --  -12.70262 -12.70187 -12.70136 -12.70077 -12.70066
 Alpha  occ. eigenvalues --  -12.69948  -6.72118  -4.88491  -4.88433  -4.87948
 Alpha  occ. eigenvalues --   -1.95846  -1.94210  -1.94096  -1.24337  -1.23295
 Alpha  occ. eigenvalues --   -1.22958  -1.22081  -1.21964  -1.21852  -1.21618
 Alpha  occ. eigenvalues --   -1.21250  -1.20760  -1.12242  -1.06810  -1.02504
 Alpha  occ. eigenvalues --   -0.89736  -0.87636  -0.64499  -0.53851  -0.52077
 Alpha  occ. eigenvalues --   -0.51864  -0.46762  -0.45784  -0.42947  -0.42776
 Alpha  occ. eigenvalues --   -0.38460  -0.35819  -0.33768  -0.32243  -0.31972
 Alpha  occ. eigenvalues --   -0.31709  -0.30413
 Alpha virt. eigenvalues --   -0.20011  -0.18998  -0.18428  -0.12841  -0.12140
 Alpha virt. eigenvalues --   -0.11161  -0.10331  -0.10084  -0.09328  -0.08690
 Alpha virt. eigenvalues --   -0.07751  -0.07644  -0.07113  -0.06323  -0.05694

 Mulliken atomic charges:
              1
     1  Ca   1.439467
     2  O   -1.178457
     3  Ca   1.430234
     4  P    0.779321
     5  O   -0.491844
     6  O   -0.492570
     7  O   -0.948607
     8  Ca   1.400306
     9  O   -0.937850
 Sum of Mulliken charges=   1.00000

 Dipole moment (field-independent basis, Debye):
    X=     4.9649    Y=    -1.7051    Z=     8.6779  Tot=    10.1422
 Quadrupole moment (field-independent basis, Debye-Ang):
   XX=   -75.2052   YY=   -34.6978   ZZ=   -68.0822
   XY=     4.4013   XZ=   -29.7843   YZ=    -0.7723

 Normal termination of Gaussian 03 at Fri Jun 12 18:13:04 2015.
