 Gaussian 03, Revision E.01,
 Gaussian 03:  EM64T-G03RevE.01 11-Sep-2007

 ----------------------------------------------------
 # b3lyp/6-31+G(d,p) int=ultrafine pop=(ReadRadii,MK)
 ----------------------------------------------------

 --------------------------------------
 mol_17.28.34.pdbc_plusQ.z58558.zip.xyz
 --------------------------------------
 Symbolic Z-matrix:
 Charge =  1 Multiplicity = 1

                         Standard orientation:
 ---------------------------------------------------------------------
 Center     Atomic     Atomic              Coordinates (Angstroms)
 Number     Number      Type              X           Y           Z
 ---------------------------------------------------------------------
    1          8             0        1.725698   -1.489722   -0.000231
    2          8             0       -0.564970    1.105840   -0.000131
    3         20             0       -2.818480    0.993922   -0.000061
    4          8             0       -2.713361   -1.087958    0.785049
    5          8             0       -2.713451   -1.088118   -0.784771
    6         20             0       -0.598552   -1.308290    0.000019
    7         15             0        3.194769   -1.028883   -0.000051
    8         20             0        1.432681    1.901059   -0.000011
    9          8             0        3.236770    0.522387    0.000309
 ---------------------------------------------------------------------

 SCF Done:  E(RB+HF-LYP) =  -2750.20951879     A.U. after    8 cycles

 The electronic state is 1-A.
 Alpha  occ. eigenvalues -- -145.53392-145.48024-145.44983 -77.30022 -19.27961
 Alpha  occ. eigenvalues --  -19.27493 -19.19911 -19.19906 -19.17873 -15.60295
 Alpha  occ. eigenvalues --  -15.54890 -15.51860 -12.73551 -12.73504 -12.73331
 Alpha  occ. eigenvalues --  -12.68098 -12.68071 -12.67999 -12.65103 -12.65066
 Alpha  occ. eigenvalues --  -12.64936  -6.75542  -4.91986  -4.91758  -4.91322
 Alpha  occ. eigenvalues --   -1.97516  -1.92193  -1.89243  -1.25375  -1.25255
 Alpha  occ. eigenvalues --   -1.24379  -1.20508  -1.19791  -1.19393  -1.17221
 Alpha  occ. eigenvalues --   -1.17085  -1.16767  -1.13774  -1.08261  -1.02445
 Alpha  occ. eigenvalues --   -0.92458  -0.83747  -0.67359  -0.56794  -0.52846
 Alpha  occ. eigenvalues --   -0.52592  -0.45481  -0.43604  -0.43399  -0.41977
 Alpha  occ. eigenvalues --   -0.41116  -0.40754  -0.37987  -0.37309  -0.36416
 Alpha  occ. eigenvalues --   -0.30522  -0.28909
 Alpha virt. eigenvalues --   -0.21325  -0.19768  -0.18063  -0.13537  -0.13440
 Alpha virt. eigenvalues --   -0.11687  -0.10902  -0.10464  -0.08651  -0.08277
 Alpha virt. eigenvalues --   -0.07167  -0.06875  -0.06458  -0.06205  -0.05656

 Mulliken atomic charges:
              1
     1  O   -0.677595
     2  O   -1.347855
     3  Ca   1.443477
     4  O   -0.651174
     5  O   -0.651177
     6  Ca   1.406271
     7  P    0.665831
     8  Ca   1.527320
     9  O   -0.715098
 Sum of Mulliken charges=   1.00000

 Dipole moment (field-independent basis, Debye):
    X=     1.2586    Y=    12.1811    Z=    -0.0008  Tot=    12.2460
 Quadrupole moment (field-independent basis, Debye-Ang):
   XX=   -63.3435   YY=   -46.2141   ZZ=   -77.2349
   XY=   -15.9769   XZ=     0.0009   YZ=    -0.0013

 Normal termination of Gaussian 03 at Fri Jun 12 18:09:48 2015.
