 Gaussian 03, Revision E.01,
 Gaussian 03:  EM64T-G03RevE.01 11-Sep-2007

 ----------------------------------------------------
 # b3lyp/6-31+G(d,p) int=ultrafine pop=(ReadRadii,MK)
 ----------------------------------------------------

 -----------------------------------------
 mol_16.4.26.pdbc_plusQ.out.z51576.zip.xyz
 -----------------------------------------
 Symbolic Z-matrix:
 Charge =  1 Multiplicity = 1

                         Standard orientation:
 ---------------------------------------------------------------------
 Center     Atomic     Atomic              Coordinates (Angstroms)
 Number     Number      Type              X           Y           Z
 ---------------------------------------------------------------------
    1          8             0        3.278279   -0.055102    0.001150
    2         15             0        1.794509   -0.064722   -0.000540
    3          8             0        0.995729   -1.387381   -0.000870
    4         20             0       -0.426740    1.991669   -0.000150
    5          8             0       -1.725500    0.377410   -0.784580
    6          8             0       -1.724860    0.377380    0.785290
    7         20             0       -1.248601   -1.668050    0.000160
 ---------------------------------------------------------------------

 SCF Done:  E(RB+HF-LYP) =  -1997.27782587     A.U. after    7 cycles

 The electronic state is 1-A.
 Alpha  occ. eigenvalues -- -145.57036-145.54341 -77.29012 -19.27750 -19.27169
 Alpha  occ. eigenvalues --  -19.27163 -19.26006 -15.63843 -15.61174 -12.77055
 Alpha  occ. eigenvalues --  -12.77046 -12.76968 -12.74391 -12.74360 -12.74300
 Alpha  occ. eigenvalues --   -6.74826  -4.91300  -4.91001  -4.90697  -2.00825
 Alpha  occ. eigenvalues --   -1.98276  -1.28677  -1.28228  -1.28168  -1.25991
 Alpha  occ. eigenvalues --   -1.25808  -1.25716  -1.13087  -1.10003  -1.08097
 Alpha  occ. eigenvalues --   -0.91066  -0.65736  -0.54197  -0.52476  -0.51604
 Alpha  occ. eigenvalues --   -0.50554  -0.49670  -0.47564  -0.43931  -0.43335
 Alpha  occ. eigenvalues --   -0.39397  -0.38835  -0.35663
 Alpha virt. eigenvalues --   -0.22681  -0.20766  -0.19792  -0.15390  -0.13297
 Alpha virt. eigenvalues --   -0.12438  -0.11328  -0.10494  -0.10230  -0.09073
 Alpha virt. eigenvalues --   -0.07541  -0.06412  -0.06298  -0.05643  -0.05588

 Mulliken atomic charges:
              1
     1  O   -0.542095
     2  P    0.457856
     3  O   -0.583473
     4  Ca   1.446333
     5  O   -0.651564
     6  O   -0.651643
     7  Ca   1.524586
 Sum of Mulliken charges=   1.00000

 Dipole moment (field-independent basis, Debye):
    X=    -7.1786    Y=     2.5338    Z=    -0.0026  Tot=     7.6126
 Quadrupole moment (field-independent basis, Debye-Ang):
   XX=   -77.6582   YY=    -7.3739   ZZ=   -58.5064
   XY=    16.7306   XZ=    -0.0077   YZ=    -0.0074

 Normal termination of Gaussian 03 at Fri Jun 12 17:48:12 2015.
