 Gaussian 03, Revision E.01,
 Gaussian 03:  EM64T-G03RevE.01 11-Sep-2007

 ----------------------------------------------------
 # b3lyp/6-31+G(d,p) int=ultrafine pop=(ReadRadii,MK)
 ----------------------------------------------------

 --------------------------------------------
 mol_17.27.55.pdbc_plusQ_plusQ.z58521.zip.xyz
 --------------------------------------------
 Symbolic Z-matrix:
 Charge =  1 Multiplicity = 1

                         Standard orientation:
 ---------------------------------------------------------------------
 Center     Atomic     Atomic              Coordinates (Angstroms)
 Number     Number      Type              X           Y           Z
 ---------------------------------------------------------------------
    1          8             0       -1.628671   -1.268669    0.000500
    2          8             0       -3.855631   -0.030499   -0.008730
    3         15             0       -3.161751   -1.407839   -0.010860
    4         20             0       -5.152901    1.827351   -0.008360
    5         20             0        0.635959   -1.140059    0.018370
    6          8             0        2.617669   -0.529289   -0.753120
    7          8             0        2.530839   -0.309249    0.800870
    8         20             0        4.511029    0.501610    0.002740
    9          8             0        6.278859    1.805150   -0.051030
 ---------------------------------------------------------------------

 SCF Done:  E(RB+HF-LYP) =  -2750.01014072     A.U. after   31 cycles

 The electronic state is 1-A.
 Alpha  occ. eigenvalues -- -145.56828-145.50836-145.43674 -77.32155 -19.29982
 Alpha  occ. eigenvalues --  -19.29977 -19.23496 -19.23490 -19.16143 -15.63721
 Alpha  occ. eigenvalues --  -15.57686 -15.50713 -12.76922 -12.76919 -12.76812
 Alpha  occ. eigenvalues --  -12.70962 -12.70909 -12.70719 -12.63976 -12.63946
 Alpha  occ. eigenvalues --  -12.63695  -6.77625  -4.94070  -4.93850  -4.93403
 Alpha  occ. eigenvalues --   -2.00590  -1.94936  -1.88190  -1.28002  -1.27985
 Alpha  occ. eigenvalues --   -1.27798  -1.22897  -1.22835  -1.22576  -1.16254
 Alpha  occ. eigenvalues --   -1.16082  -1.16061  -1.15711  -1.10793  -1.05676
 Alpha  occ. eigenvalues --   -0.87286  -0.86494  -0.70073  -0.59549  -0.54932
 Alpha  occ. eigenvalues --   -0.54612  -0.48007  -0.46895  -0.46643  -0.45869
 Alpha  occ. eigenvalues --   -0.44044  -0.42178  -0.35549  -0.31564  -0.30130
 Alpha  occ. eigenvalues --   -0.29186  -0.26630
 Alpha virt. eigenvalues --   -0.25719  -0.21750  -0.17624  -0.15481  -0.15478
 Alpha virt. eigenvalues --   -0.13576  -0.12394  -0.12167  -0.10663  -0.08748
 Alpha virt. eigenvalues --   -0.08650  -0.08226  -0.07613  -0.06494  -0.06253

 Mulliken atomic charges:
              1
     1  O   -0.651041
     2  O   -0.638123
     3  P    0.641903
     4  Ca   0.906933
     5  Ca   1.455420
     6  O   -0.665594
     7  O   -0.667371
     8  Ca   1.335431
     9  O   -0.717558
 Sum of Mulliken charges=   1.00000

 Dipole moment (field-independent basis, Debye):
    X=   -20.2905    Y=    -1.9714    Z=     0.1728  Tot=    20.3867
 Quadrupole moment (field-independent basis, Debye-Ang):
   XX=   -47.8851   YY=   -72.4156   ZZ=   -80.4401
   XY=   -57.6938   XZ=     1.3976   YZ=    -0.2184

 Normal termination of Gaussian 03 at Fri Jun 12 18:10:28 2015.
