 Gaussian 03, Revision E.01,
 Gaussian 03:  EM64T-G03RevE.01 11-Sep-2007

 ----------------------------------------------------
 # b3lyp/6-31+G(d,p) int=ultrafine pop=(ReadRadii,MK)
 ----------------------------------------------------

 ---------------------------------------
 mol_17.26.40.pdbcc_plusQ.z58451.zip.xyz
 ---------------------------------------
 Symbolic Z-matrix:
 Charge =  1 Multiplicity = 1

                         Standard orientation:
 ---------------------------------------------------------------------
 Center     Atomic     Atomic              Coordinates (Angstroms)
 Number     Number      Type              X           Y           Z
 ---------------------------------------------------------------------
    1          8             0        0.335511   -0.929750   -0.290672
    2          8             0        2.942251    0.746200   -0.410982
    3          8             0        2.463031    0.834460    1.080028
    4         15             0       -1.139249   -0.788411   -0.944512
    5          8             0       -1.427569    0.891709   -0.494562
    6         20             0        2.446962   -1.282730    0.368698
    7         20             0        0.808851    1.500450   -0.319192
    8         20             0       -3.240759    0.345089    0.694588
    9          8             0       -2.214768   -1.471371    0.026908
 ---------------------------------------------------------------------

 SCF Done:  E(RB+HF-LYP) =  -2750.19795142     A.U. after    7 cycles

 The electronic state is 1-A.
 Alpha  occ. eigenvalues -- -145.54443-145.49716-145.46334 -77.24443 -19.21803
 Alpha  occ. eigenvalues --  -19.21259 -19.20895 -19.20745 -19.20338 -15.61303
 Alpha  occ. eigenvalues --  -15.56514 -15.53241 -12.74534 -12.74440 -12.74432
 Alpha  occ. eigenvalues --  -12.69725 -12.69700 -12.69641 -12.66476 -12.66464
 Alpha  occ. eigenvalues --  -12.66294  -6.69519  -4.85927  -4.85846  -4.85331
 Alpha  occ. eigenvalues --   -1.98418  -1.93698  -1.90592  -1.26083  -1.25909
 Alpha  occ. eigenvalues --   -1.25556  -1.21826  -1.21215  -1.21105  -1.18488
 Alpha  occ. eigenvalues --   -1.18344  -1.18052  -1.06947  -1.03524  -1.01161
 Alpha  occ. eigenvalues --   -0.99568  -0.84630  -0.62348  -0.51025  -0.50131
 Alpha  occ. eigenvalues --   -0.47439  -0.44517  -0.44224  -0.42685  -0.41958
 Alpha  occ. eigenvalues --   -0.40825  -0.38688  -0.37818  -0.37545  -0.31573
 Alpha  occ. eigenvalues --   -0.30331  -0.29523
 Alpha virt. eigenvalues --   -0.22208  -0.18029  -0.15333  -0.13698  -0.12621
 Alpha virt. eigenvalues --   -0.11334  -0.10041  -0.08830  -0.08450  -0.07262
 Alpha virt. eigenvalues --   -0.07133  -0.06051  -0.05722  -0.05628  -0.05087

 Mulliken atomic charges:
              1
     1  O   -1.011522
     2  O   -0.650773
     3  O   -0.657973
     4  P    0.903241
     5  O   -1.061225
     6  Ca   1.479003
     7  Ca   1.452582
     8  Ca   1.411125
     9  O   -0.864458
 Sum of Mulliken charges=   1.00000

 Dipole moment (field-independent basis, Debye):
    X=    -6.6256    Y=     1.0631    Z=     4.9330  Tot=     8.3285
 Quadrupole moment (field-independent basis, Debye-Ang):
   XX=   -22.5861   YY=   -60.2668   ZZ=   -77.3577
   XY=   -40.6816   XZ=   -17.3431   YZ=    -6.1774

 Normal termination of Gaussian 03 at Fri Jun 12 18:00:41 2015.
