 Gaussian 03, Revision E.01,
 Gaussian 03:  EM64T-G03RevE.01 11-Sep-2007

 ----------------------------------------------------
 # b3lyp/6-31+G(d,p) int=ultrafine pop=(ReadRadii,MK)
 ----------------------------------------------------

 ------------------------------------------
 mol_16.4.54.pdbc_plusQc.out.z51605.zip.xyz
 ------------------------------------------
 Symbolic Z-matrix:
 Charge =  1 Multiplicity = 1

                         Standard orientation:
 ---------------------------------------------------------------------
 Center     Atomic     Atomic              Coordinates (Angstroms)
 Number     Number      Type              X           Y           Z
 ---------------------------------------------------------------------
    1          8             0       -1.713520    0.000294   -0.785831
    2          8             0       -1.713150    0.000204    0.786829
    3          8             0        1.442668    1.273351   -0.000421
    4          8             0        1.442243   -1.273679   -0.000561
    5         15             0        2.319910   -0.000240    0.000489
    6         20             0       -0.761835   -1.857859   -0.000171
    7         20             0       -0.761395    1.857971   -0.000201
 ---------------------------------------------------------------------

 SCF Done:  E(RB+HF-LYP) =  -1997.33372454     A.U. after    6 cycles

 The electronic state is 1-A.
 Alpha  occ. eigenvalues -- -145.53246-145.53244 -77.30161 -19.27956 -19.27950
 Alpha  occ. eigenvalues --  -19.25617 -19.25571 -15.60092 -15.60092 -12.73307
 Alpha  occ. eigenvalues --  -12.73306 -12.73289 -12.73288 -12.73207 -12.73205
 Alpha  occ. eigenvalues --   -6.75643  -4.92082  -4.91867  -4.91423  -1.97236
 Alpha  occ. eigenvalues --   -1.97209  -1.25766  -1.24806  -1.24792  -1.24725
 Alpha  occ. eigenvalues --   -1.24725  -1.24302  -1.13926  -1.08557  -1.08247
 Alpha  occ. eigenvalues --   -0.89531  -0.67705  -0.57283  -0.52824  -0.52602
 Alpha  occ. eigenvalues --   -0.48996  -0.47946  -0.46122  -0.45764  -0.43903
 Alpha  occ. eigenvalues --   -0.40699  -0.37200  -0.34175
 Alpha virt. eigenvalues --   -0.20456  -0.19851  -0.19631  -0.14488  -0.11367
 Alpha virt. eigenvalues --   -0.11280  -0.10319  -0.09667  -0.09053  -0.07374
 Alpha virt. eigenvalues --   -0.07215  -0.06431  -0.05962  -0.05215  -0.04856

 Mulliken atomic charges:
              1
     1  O   -0.668939
     2  O   -0.668076
     3  O   -0.709744
     4  O   -0.709801
     5  P    0.668653
     6  Ca   1.543969
     7  Ca   1.543938
 Sum of Mulliken charges=   1.00000

 Dipole moment (field-independent basis, Debye):
    X=    -3.1427    Y=    -0.0003    Z=     0.0011  Tot=     3.1427
 Quadrupole moment (field-independent basis, Debye-Ang):
   XX=   -66.5063   YY=    -8.8971   ZZ=   -58.2529
   XY=     0.0079   XZ=     0.0024   YZ=    -0.0010

 Normal termination of Gaussian 03 at Fri Jun 12 17:48:48 2015.
