 Gaussian 03, Revision E.01,
 Gaussian 03:  EM64T-G03RevE.01 11-Sep-2007

 ----------------------------------------------------
 # b3lyp/6-31+G(d,p) int=ultrafine pop=(ReadRadii,MK)
 ----------------------------------------------------

 -----------------------------------------
 mol_17.27.43.pdbcccc_plusQ.z58509.zip.xyz
 -----------------------------------------
 Symbolic Z-matrix:
 Charge =  1 Multiplicity = 1

                         Standard orientation:
 ---------------------------------------------------------------------
 Center     Atomic     Atomic              Coordinates (Angstroms)
 Number     Number      Type              X           Y           Z
 ---------------------------------------------------------------------
    1          8             0       -3.410681   -0.653620    0.000020
    2          8             0        0.821839   -0.879627    0.778360
    3          8             0        0.822359   -0.881467   -0.777140
    4         20             0        3.076379   -0.693436   -0.000330
    5          8             0        2.874348    1.416454   -0.000450
    6         20             0        0.725558    1.518792    0.000440
    7         15             0       -3.170892    0.866680   -0.000210
    8         20             0       -1.221510   -1.492279    0.000140
    9          8             0       -1.613512    1.040541   -0.001020
 ---------------------------------------------------------------------

 SCF Done:  E(RB+HF-LYP) =  -2750.19922756     A.U. after    8 cycles

 The electronic state is 1-A.
 Alpha  occ. eigenvalues -- -145.53297-145.48103-145.46504 -77.31651 -19.29961
 Alpha  occ. eigenvalues --  -19.29139 -19.27654 -19.27649 -19.10312 -15.60142
 Alpha  occ. eigenvalues --  -15.54940 -15.53363 -12.73378 -12.73373 -12.73208
 Alpha  occ. eigenvalues --  -12.68158 -12.68122 -12.68043 -12.66617 -12.66581
 Alpha  occ. eigenvalues --  -12.66412  -6.77275  -4.93707  -4.93475  -4.93057
 Alpha  occ. eigenvalues --   -1.97328  -1.92137  -1.90672  -1.25311  -1.25142
 Alpha  occ. eigenvalues --   -1.25001  -1.20357  -1.19792  -1.19241  -1.18533
 Alpha  occ. eigenvalues --   -1.18455  -1.17874  -1.15555  -1.10914  -1.09766
 Alpha  occ. eigenvalues --   -0.91286  -0.84521  -0.68934  -0.57901  -0.55274
 Alpha  occ. eigenvalues --   -0.54486  -0.51222  -0.50447  -0.49463  -0.46904
 Alpha  occ. eigenvalues --   -0.45456  -0.42704  -0.38844  -0.36711  -0.30149
 Alpha  occ. eigenvalues --   -0.28564  -0.28511
 Alpha virt. eigenvalues --   -0.21601  -0.19561  -0.17910  -0.15030  -0.15006
 Alpha virt. eigenvalues --   -0.11253  -0.10529  -0.09852  -0.09286  -0.08794
 Alpha virt. eigenvalues --   -0.08675  -0.08137  -0.07318  -0.06843  -0.06403

 Mulliken atomic charges:
              1
     1  O   -0.647352
     2  O   -0.694318
     3  O   -0.694320
     4  Ca   1.363063
     5  O   -1.123864
     6  Ca   1.356141
     7  P    0.680218
     8  Ca   1.503079
     9  O   -0.742647
 Sum of Mulliken charges=   1.00000

 Dipole moment (field-independent basis, Debye):
    X=    -0.3515    Y=    -7.6356    Z=     0.0031  Tot=     7.6437
 Quadrupole moment (field-independent basis, Debye-Ang):
   XX=   -63.3766   YY=   -57.0910   ZZ=   -77.2560
   XY=   -23.1673   XZ=     0.0004   YZ=     0.0114

 Normal termination of Gaussian 03 at Fri Jun 12 18:06:34 2015.
