 Gaussian 03, Revision E.01,
 Gaussian 03:  EM64T-G03RevE.01 11-Sep-2007

 ----------------------------------------------------
 # b3lyp/6-31+G(d,p) int=ultrafine pop=(ReadRadii,MK)
 ----------------------------------------------------

 ------------------------------------------
 mol_16.4.51.pdbcc_plusQ.out.z51602.zip.xyz
 ------------------------------------------
 Symbolic Z-matrix:
 Charge =  1 Multiplicity = 1

                         Standard orientation:
 ---------------------------------------------------------------------
 Center     Atomic     Atomic              Coordinates (Angstroms)
 Number     Number      Type              X           Y           Z
 ---------------------------------------------------------------------
    1          8             0        2.011418    0.386190    0.000289
    2          8             0        0.669130   -1.779457   -0.000411
    3         15             0        2.082546   -1.164259    0.000089
    4         20             0        0.524598    2.087852   -0.000101
    5          8             0       -1.236546    0.931312   -0.000071
    6          8             0       -2.710314    0.614413    0.000159
    7         20             0       -1.579983   -1.275640    0.000049
 ---------------------------------------------------------------------

 SCF Done:  E(RB+HF-LYP) =  -1997.28635202     A.U. after    8 cycles

 The electronic state is 1-A.
 Alpha  occ. eigenvalues -- -145.56428-145.51700 -77.31027 -19.28834 -19.28830
 Alpha  occ. eigenvalues --  -19.24198 -19.21222 -15.63204 -15.58584 -12.76457
 Alpha  occ. eigenvalues --  -12.76390 -12.76308 -12.71855 -12.71769 -12.71645
 Alpha  occ. eigenvalues --   -6.76502  -4.92943  -4.92727  -4.92280  -2.00199
 Alpha  occ. eigenvalues --   -1.95777  -1.27887  -1.27802  -1.27345  -1.23662
 Alpha  occ. eigenvalues --   -1.23650  -1.23063  -1.14762  -1.09433  -1.07133
 Alpha  occ. eigenvalues --   -0.85574  -0.68640  -0.58204  -0.53606  -0.53496
 Alpha  occ. eigenvalues --   -0.48427  -0.46701  -0.45148  -0.44767  -0.44146
 Alpha  occ. eigenvalues --   -0.41446  -0.31737  -0.29799
 Alpha virt. eigenvalues --   -0.22440  -0.20731  -0.19070  -0.13909  -0.12532
 Alpha virt. eigenvalues --   -0.11791  -0.11498  -0.09615  -0.08245  -0.07707
 Alpha virt. eigenvalues --   -0.06668  -0.06264  -0.05657  -0.05584  -0.05275

 Mulliken atomic charges:
              1
     1  O   -0.721287
     2  O   -0.711063
     3  P    0.683282
     4  Ca   1.572645
     5  O   -0.689853
     6  O   -0.608796
     7  Ca   1.475071
 Sum of Mulliken charges=   1.00000

 Dipole moment (field-independent basis, Debye):
    X=     1.9996    Y=     2.4276    Z=    -0.0002  Tot=     3.1451
 Quadrupole moment (field-independent basis, Debye-Ang):
   XX=   -65.8556   YY=   -17.9945   ZZ=   -54.3485
   XY=    29.3426   XZ=    -0.0015   YZ=    -0.0052

 Normal termination of Gaussian 03 at Fri Jun 12 17:48:55 2015.
