 Gaussian 03, Revision E.01,
 Gaussian 03:  EM64T-G03RevE.01 11-Sep-2007

 ----------------------------------------------------
 # b3lyp/6-31+G(d,p) int=ultrafine pop=(ReadRadii,MK)
 ----------------------------------------------------

 ----------------------------------------
 mol_16.4.16.pdb_plusQ.out.z51567.zip.xyz
 ----------------------------------------
 Symbolic Z-matrix:
 Charge =  1 Multiplicity = 1

                         Standard orientation:
 ---------------------------------------------------------------------
 Center     Atomic     Atomic              Coordinates (Angstroms)
 Number     Number      Type              X           Y           Z
 ---------------------------------------------------------------------
    1         20             0       -0.763999   -1.857213   -0.001139
    2          8             0        1.440871   -1.275045    0.001191
    3         15             0        2.320149   -0.002709    0.001491
    4          8             0        1.444116    1.271856   -0.005109
    5          8             0       -1.714972    0.002270   -0.785059
    6          8             0       -1.712262    0.001590    0.787281
    7         20             0       -0.759214    1.858977    0.000701
 ---------------------------------------------------------------------

 SCF Done:  E(RB+HF-LYP) =  -1997.33372410     A.U. after    6 cycles

 The electronic state is 1-A.
 Alpha  occ. eigenvalues -- -145.53249-145.53246 -77.30163 -19.27955 -19.27950
 Alpha  occ. eigenvalues --  -19.25592 -19.25583 -15.60096 -15.60093 -12.73310
 Alpha  occ. eigenvalues --  -12.73308 -12.73292 -12.73290 -12.73210 -12.73207
 Alpha  occ. eigenvalues --   -6.75644  -4.92084  -4.91869  -4.91424  -1.97237
 Alpha  occ. eigenvalues --   -1.97211  -1.25766  -1.24807  -1.24793  -1.24727
 Alpha  occ. eigenvalues --   -1.24726  -1.24303  -1.13923  -1.08554  -1.08252
 Alpha  occ. eigenvalues --   -0.89519  -0.67705  -0.57281  -0.52822  -0.52600
 Alpha  occ. eigenvalues --   -0.48993  -0.47945  -0.46120  -0.45761  -0.43899
 Alpha  occ. eigenvalues --   -0.40701  -0.37189  -0.34165
 Alpha virt. eigenvalues --   -0.20457  -0.19853  -0.19631  -0.14480  -0.11368
 Alpha virt. eigenvalues --   -0.11280  -0.10319  -0.09667  -0.09042  -0.07376
 Alpha virt. eigenvalues --   -0.07215  -0.06432  -0.05962  -0.05215  -0.04858

 Mulliken atomic charges:
              1
     1  Ca   1.543997
     2  O   -0.709900
     3  P    0.668792
     4  O   -0.709823
     5  O   -0.668346
     6  O   -0.668774
     7  Ca   1.544054
 Sum of Mulliken charges=   1.00000

 Dipole moment (field-independent basis, Debye):
    X=    -3.1397    Y=     0.0040    Z=     0.0004  Tot=     3.1397
 Quadrupole moment (field-independent basis, Debye-Ang):
   XX=   -66.5086   YY=    -8.8852   ZZ=   -58.2537
   XY=     0.0720   XZ=     0.0181   YZ=     0.0602

 Normal termination of Gaussian 03 at Fri Jun 12 17:48:11 2015.
