 Gaussian 03, Revision E.01,
 Gaussian 03:  EM64T-G03RevE.01 11-Sep-2007

 ----------------------------------------------------
 # b3lyp/6-31+G(d,p) int=ultrafine pop=(ReadRadii,MK)
 ----------------------------------------------------

 -----------------------------------------
 mol_16.5.14.pdbc_plusQ.out.z51620.zip.xyz
 -----------------------------------------
 Symbolic Z-matrix:
 Charge =  1 Multiplicity = 1

                         Standard orientation:
 ---------------------------------------------------------------------
 Center     Atomic     Atomic              Coordinates (Angstroms)
 Number     Number      Type              X           Y           Z
 ---------------------------------------------------------------------
    1          8             0       -2.487809    1.239671   -0.007701
    2         15             0       -3.421169    0.000361   -0.000221
    3          8             0       -2.488439   -1.239419    0.007139
    4          8             0        1.677811   -0.012099   -0.787711
    5          8             0        1.678121    0.011241    0.787939
    6         20             0       -0.487969   -0.000369    0.000589
    7         20             0        3.701971    0.000340   -0.000291
 ---------------------------------------------------------------------

 SCF Done:  E(RB+HF-LYP) =  -1997.29959280     A.U. after    6 cycles

 The electronic state is 1-A.
 Alpha  occ. eigenvalues -- -145.61307-145.47830 -77.25111 -19.28178 -19.28173
 Alpha  occ. eigenvalues --  -19.23089 -19.23087 -15.68066 -15.54730 -12.81315
 Alpha  occ. eigenvalues --  -12.81251 -12.81182 -12.67978 -12.67950 -12.67783
 Alpha  occ. eigenvalues --   -6.70864  -4.87296  -4.87045  -4.86661  -2.04908
 Alpha  occ. eigenvalues --   -1.92042  -1.32456  -1.32381  -1.32127  -1.20436
 Alpha  occ. eigenvalues --   -1.19904  -1.19706  -1.11027  -1.08927  -1.03446
 Alpha  occ. eigenvalues --   -0.92089  -0.61802  -0.51529  -0.50968  -0.50581
 Alpha  occ. eigenvalues --   -0.48638  -0.48442  -0.48206  -0.40454  -0.40216
 Alpha  occ. eigenvalues --   -0.38739  -0.36541  -0.36217
 Alpha virt. eigenvalues --   -0.26771  -0.17588  -0.16698  -0.15594  -0.14691
 Alpha virt. eigenvalues --   -0.13211  -0.12488  -0.08761  -0.08298  -0.07809
 Alpha virt. eigenvalues --   -0.06076  -0.06006  -0.05734  -0.05252  -0.04043

 Mulliken atomic charges:
              1
     1  O   -0.637372
     2  P    0.477589
     3  O   -0.637377
     4  O   -0.649304
     5  O   -0.649300
     6  Ca   1.514083
     7  Ca   1.581680
 Sum of Mulliken charges=   1.00000

 Dipole moment (field-independent basis, Debye):
    X=    21.1361    Y=     0.0029    Z=     0.0018  Tot=    21.1361
 Quadrupole moment (field-independent basis, Debye-Ang):
   XX=    29.9989   YY=   -65.5064   ZZ=   -58.2809
   XY=     0.0134   XZ=    -0.0141   YZ=     0.0065

 Normal termination of Gaussian 03 at Fri Jun 12 17:49:15 2015.
