 Gaussian 03, Revision E.01,
 Gaussian 03:  EM64T-G03RevE.01 11-Sep-2007

 ----------------------------------------------------
 # b3lyp/6-31+G(d,p) int=ultrafine pop=(ReadRadii,MK)
 ----------------------------------------------------

 -------------------------------------
 mol_17.25.27.pdb_plusQ.z58332.zip.xyz
 -------------------------------------
 Symbolic Z-matrix:
 Charge =  1 Multiplicity = 1

                         Standard orientation:
 ---------------------------------------------------------------------
 Center     Atomic     Atomic              Coordinates (Angstroms)
 Number     Number      Type              X           Y           Z
 ---------------------------------------------------------------------
    1          8             0       -2.360907   -0.313752    0.000000
    2          8             0       -2.659230    2.037437    0.000000
    3          8             0       -1.821846    3.202751    0.000000
    4          8             0       -0.618071    2.416487    0.000000
    5         15             0       -1.410774    0.889343    0.000000
    6         20             0        2.237575    1.161752    0.000000
    7          8             0        0.000000    0.185830    0.000000
    8         20             0       -0.952618   -2.236305    0.000000
    9         20             0        2.757144   -2.603956    0.000000
 ---------------------------------------------------------------------

 SCF Done:  E(RB+HF-LYP) =  -2749.84642188     A.U. after   13 cycles

 The electronic state is 1-A'.
 Alpha  occ. eigenvalues -- -145.54500-145.52729-145.52348 -77.41102 -19.42719
 Alpha  occ. eigenvalues --  -19.39158 -19.38681 -19.30341 -19.29138 -15.61552
 Alpha  occ. eigenvalues --  -15.59692 -15.59309 -12.74726 -12.74714 -12.74637
 Alpha  occ. eigenvalues --  -12.72908 -12.72871 -12.72764 -12.72495 -12.72472
 Alpha  occ. eigenvalues --  -12.72412  -6.85504  -5.02168  -5.01719  -5.01606
 Alpha  occ. eigenvalues --   -1.98670  -1.96787  -1.96350  -1.36600  -1.26071
 Alpha  occ. eigenvalues --   -1.25967  -1.25650  -1.24378  -1.24376  -1.23981
 Alpha  occ. eigenvalues --   -1.23771  -1.23659  -1.23527  -1.17405  -1.15541
 Alpha  occ. eigenvalues --   -1.09506  -1.00627  -0.71392  -0.70867  -0.64909
 Alpha  occ. eigenvalues --   -0.64356  -0.60011  -0.56014  -0.54810  -0.50705
 Alpha  occ. eigenvalues --   -0.50444  -0.49516  -0.46119  -0.44798  -0.41463
 Alpha  occ. eigenvalues --   -0.31529  -0.25749
 Alpha virt. eigenvalues --   -0.22500  -0.20100  -0.19949  -0.17405  -0.15974
 Alpha virt. eigenvalues --   -0.15655  -0.15095  -0.13744  -0.13548  -0.12149
 Alpha virt. eigenvalues --   -0.10772  -0.10426  -0.09771  -0.08505  -0.07816

 Mulliken atomic charges:
              1
     1  O   -0.842540
     2  O   -0.463536
     3  O    0.206022
     4  O   -0.493581
     5  P    1.842704
     6  Ca   0.468405
     7  O   -0.899237
     8  Ca   0.679019
     9  Ca   0.502745
 Sum of Mulliken charges=   1.00000

 Dipole moment (field-independent basis, Debye):
    X=     7.2311    Y=    -6.6985    Z=     0.0000  Tot=     9.8569
 Quadrupole moment (field-independent basis, Debye-Ang):
   XX=   -67.3020   YY=   -61.5669   ZZ=   -89.6103
   XY=    -8.6170   XZ=     0.0000   YZ=     0.0000

 Normal termination of Gaussian 03 at Fri Jun 12 17:58:00 2015.
