 Gaussian 03, Revision E.01,
 Gaussian 03:  EM64T-G03RevE.01 11-Sep-2007

 ----------------------------------------------------
 # b3lyp/6-31+G(d,p) int=ultrafine pop=(ReadRadii,MK)
 ----------------------------------------------------

 -----------------------------------------
 mol_17.29.50.pdbcccc_plusQ.z58633.zip.xyz
 -----------------------------------------
 Symbolic Z-matrix:
 Charge =  1 Multiplicity = 1

                         Standard orientation:
 ---------------------------------------------------------------------
 Center     Atomic     Atomic              Coordinates (Angstroms)
 Number     Number      Type              X           Y           Z
 ---------------------------------------------------------------------
    1          8             0       -5.856301    0.005808   -0.000479
    2         15             0       -4.384801    0.002868   -0.000439
    3          8             0       -3.495030   -1.239431    0.002871
    4          8             0       -3.490131    1.241649   -0.002319
    5         20             0       -1.456441   -0.002880    0.000061
    6          8             0        0.675029   -0.000679    0.786421
    7          8             0        0.675189   -0.008889   -0.785829
    8         20             0        2.743509   -0.003428    0.000481
    9         20             0        6.598029    0.004774   -0.000479
 ---------------------------------------------------------------------

 SCF Done:  E(RB+HF-LYP) =  -2750.11528680     A.U. after   15 cycles

 The electronic state is 1-A.
 Alpha  occ. eigenvalues -- -145.58125-145.53171-145.46873 -77.29835 -19.24926
 Alpha  occ. eigenvalues --  -19.24790 -19.24056 -19.24016 -19.22820 -15.65153
 Alpha  occ. eigenvalues --  -15.60110 -15.53746 -12.78297 -12.78297 -12.78276
 Alpha  occ. eigenvalues --  -12.73365 -12.73306 -12.73161 -12.66992 -12.66977
 Alpha  occ. eigenvalues --  -12.66802  -6.75208  -4.91806  -4.91319  -4.91277
 Alpha  occ. eigenvalues --   -2.02154  -1.97302  -1.91051  -1.29413  -1.29412
 Alpha  occ. eigenvalues --   -1.29207  -1.25083  -1.24885  -1.24792  -1.19476
 Alpha  occ. eigenvalues --   -1.18887  -1.18779  -1.12852  -1.07297  -1.05459
 Alpha  occ. eigenvalues --   -1.05110  -0.88685  -0.60738  -0.52436  -0.51154
 Alpha  occ. eigenvalues --   -0.50901  -0.48249  -0.47647  -0.45392  -0.44676
 Alpha  occ. eigenvalues --   -0.41583  -0.41277  -0.40532  -0.37518  -0.37021
 Alpha  occ. eigenvalues --   -0.33594  -0.32900
 Alpha virt. eigenvalues --   -0.23045  -0.18872  -0.18870  -0.15113  -0.14113
 Alpha virt. eigenvalues --   -0.13647  -0.12651  -0.11212  -0.10125  -0.09191
 Alpha virt. eigenvalues --   -0.09076  -0.07756  -0.07114  -0.06683  -0.06185

 Mulliken atomic charges:
              1
     1  O   -0.623313
     2  P    1.152564
     3  O   -0.686936
     4  O   -0.687652
     5  Ca   1.369921
     6  O   -0.661912
     7  O   -0.664733
     8  Ca   0.971916
     9  Ca   0.830144
 Sum of Mulliken charges=   1.00000

 Dipole moment (field-independent basis, Debye):
    X=    30.5664    Y=    -0.0032    Z=     0.0089  Tot=    30.5664
 Quadrupole moment (field-independent basis, Debye-Ang):
   XX=    50.2000   YY=   -89.4244   ZZ=   -82.3390
   XY=     0.1553   XZ=     0.0071   YZ=     0.0016

 Normal termination of Gaussian 03 at Fri Jun 12 18:13:37 2015.
