 Gaussian 03, Revision E.01,
 Gaussian 03:  EM64T-G03RevE.01 11-Sep-2007

 ----------------------------------------------------
 # b3lyp/6-31+G(d,p) int=ultrafine pop=(ReadRadii,MK)
 ----------------------------------------------------

 --------------------------------------
 mol_17.29.12.pdbc_plusQ.z58592.zip.xyz
 --------------------------------------
 Symbolic Z-matrix:
 Charge =  1 Multiplicity = 1

                         Standard orientation:
 ---------------------------------------------------------------------
 Center     Atomic     Atomic              Coordinates (Angstroms)
 Number     Number      Type              X           Y           Z
 ---------------------------------------------------------------------
    1          8             0        3.410668   -0.652637    0.003688
    2          8             0       -0.820742   -0.879098    0.779528
    3         20             0        1.221967   -1.492892   -0.001772
    4         15             0        3.169831    0.867554    0.000248
    5          8             0        1.612402    1.040647   -0.007082
    6          8             0       -0.821642   -0.879748   -0.776052
    7         20             0       -3.075342   -0.694004    0.000178
    8          8             0       -2.874888    1.416086   -0.004112
    9         20             0       -0.726317    1.518131    0.003018
 ---------------------------------------------------------------------

 SCF Done:  E(RB+HF-LYP) =  -2750.19922518     A.U. after    8 cycles

 The electronic state is 1-A.
 Alpha  occ. eigenvalues -- -145.53307-145.48105-145.46483 -77.31646 -19.29955
 Alpha  occ. eigenvalues --  -19.29137 -19.27669 -19.27654 -19.10311 -15.60152
 Alpha  occ. eigenvalues --  -15.54942 -15.53343 -12.73389 -12.73384 -12.73219
 Alpha  occ. eigenvalues --  -12.68160 -12.68124 -12.68045 -12.66597 -12.66561
 Alpha  occ. eigenvalues --  -12.66392  -6.77270  -4.93703  -4.93470  -4.93052
 Alpha  occ. eigenvalues --   -1.97337  -1.92140  -1.90656  -1.25320  -1.25150
 Alpha  occ. eigenvalues --   -1.25010  -1.20362  -1.19794  -1.19242  -1.18517
 Alpha  occ. eigenvalues --   -1.18443  -1.17863  -1.15547  -1.10919  -1.09762
 Alpha  occ. eigenvalues --   -0.91300  -0.84520  -0.68929  -0.57896  -0.55270
 Alpha  occ. eigenvalues --   -0.54481  -0.51233  -0.50457  -0.49474  -0.46900
 Alpha  occ. eigenvalues --   -0.45454  -0.42698  -0.38856  -0.36726  -0.30146
 Alpha  occ. eigenvalues --   -0.28564  -0.28510
 Alpha virt. eigenvalues --   -0.21596  -0.19570  -0.17914  -0.15030  -0.15007
 Alpha virt. eigenvalues --   -0.11257  -0.10536  -0.09853  -0.09291  -0.08791
 Alpha virt. eigenvalues --   -0.08673  -0.08136  -0.07317  -0.06847  -0.06405

 Mulliken atomic charges:
              1
     1  O   -0.647450
     2  O   -0.695084
     3  Ca   1.503325
     4  P    0.680132
     5  O   -0.742497
     6  O   -0.693514
     7  Ca   1.362834
     8  O   -1.123661
     9  Ca   1.355916
 Sum of Mulliken charges=   1.00000

 Dipole moment (field-independent basis, Debye):
    X=     0.3556    Y=    -7.6535    Z=     0.0256  Tot=     7.6618
 Quadrupole moment (field-independent basis, Debye-Ang):
   XX=   -63.4405   YY=   -57.0565   ZZ=   -77.2549
   XY=    23.1586   XZ=    -0.1062   YZ=     0.1294

 Normal termination of Gaussian 03 at Fri Jun 12 18:11:26 2015.
