 Gaussian 03, Revision E.01,
 Gaussian 03:  EM64T-G03RevE.01 11-Sep-2007

 ----------------------------------------------------
 # b3lyp/6-31+G(d,p) int=ultrafine pop=(ReadRadii,MK)
 ----------------------------------------------------

 ---------------------------------------
 mol_17.28.56.pdbcc_plusQ.z58581.zip.xyz
 ---------------------------------------
 Symbolic Z-matrix:
 Charge =  1 Multiplicity = 1

                         Standard orientation:
 ---------------------------------------------------------------------
 Center     Atomic     Atomic              Coordinates (Angstroms)
 Number     Number      Type              X           Y           Z
 ---------------------------------------------------------------------
    1          8             0       -0.521669   -0.169562    1.303931
    2          8             0       -2.811730    0.819285   -0.553869
    3         15             0        0.574582   -0.600780    0.280631
    4          8             0        1.953632   -1.098668    0.828671
    5          8             0       -0.073137   -1.563451   -0.734609
    6         20             0       -2.318977   -1.232145   -0.177189
    7         20             0       -1.116732    1.881957    0.176111
    8         20             0        3.183290    0.272143   -0.369549
    9          8             0        1.006610    0.833970   -0.443739
 ---------------------------------------------------------------------

 SCF Done:  E(RB+HF-LYP) =  -2750.26912127     A.U. after    8 cycles

 The electronic state is 1-A.
 Alpha  occ. eigenvalues -- -145.53875-145.50363-145.49123 -77.31100 -19.24077
 Alpha  occ. eigenvalues --  -19.23752 -19.22024 -19.20898 -19.18561 -15.60758
 Alpha  occ. eigenvalues --  -15.57182 -15.55980 -12.73986 -12.73915 -12.73880
 Alpha  occ. eigenvalues --  -12.70411 -12.70395 -12.70271 -12.69206 -12.69179
 Alpha  occ. eigenvalues --  -12.69069  -6.75468  -4.91910  -4.91791  -4.91748
 Alpha  occ. eigenvalues --   -1.97911  -1.94297  -1.93219  -1.25684  -1.25495
 Alpha  occ. eigenvalues --   -1.25188  -1.22339  -1.21892  -1.21584  -1.20991
 Alpha  occ. eigenvalues --   -1.20836  -1.20340  -1.12677  -1.04546  -1.03707
 Alpha  occ. eigenvalues --   -1.02511  -0.91606  -0.62598  -0.54019  -0.53468
 Alpha  occ. eigenvalues --   -0.52644  -0.46940  -0.44743  -0.44038  -0.42405
 Alpha  occ. eigenvalues --   -0.41944  -0.39392  -0.38033  -0.37125  -0.36564
 Alpha  occ. eigenvalues --   -0.34872  -0.34604
 Alpha virt. eigenvalues --   -0.21761  -0.18346  -0.17053  -0.12960  -0.12131
 Alpha virt. eigenvalues --   -0.10103  -0.10036  -0.09178  -0.08493  -0.07814
 Alpha virt. eigenvalues --   -0.07107  -0.06541  -0.05570  -0.05317  -0.04891

 Mulliken atomic charges:
              1
     1  O   -1.038860
     2  O   -1.345552
     3  P    1.800110
     4  O   -0.881452
     5  O   -0.890640
     6  Ca   1.436597
     7  Ca   1.455976
     8  Ca   1.587177
     9  O   -1.123357
 Sum of Mulliken charges=   1.00000

 Dipole moment (field-independent basis, Debye):
    X=    14.4696    Y=     4.6814    Z=    -0.7227  Tot=    15.2252
 Quadrupole moment (field-independent basis, Debye-Ang):
   XX=   -12.2564   YY=   -49.2007   ZZ=   -83.3074
   XY=    32.0613   XZ=   -20.4111   YZ=     7.3484

 Normal termination of Gaussian 03 at Fri Jun 12 18:11:00 2015.
