 Gaussian 03, Revision E.01,
 Gaussian 03:  EM64T-G03RevE.01 11-Sep-2007

 ----------------------------------------------------
 # b3lyp/6-31+G(d,p) int=ultrafine pop=(ReadRadii,MK)
 ----------------------------------------------------

 ----------------------------------------
 mol_16.4.53.pdb_plusQ.out.z51604.zip.xyz
 ----------------------------------------
 Symbolic Z-matrix:
 Charge =  1 Multiplicity = 1

                         Standard orientation:
 ---------------------------------------------------------------------
 Center     Atomic     Atomic              Coordinates (Angstroms)
 Number     Number      Type              X           Y           Z
 ---------------------------------------------------------------------
    1          8             0        0.252038   -0.980390   -0.000310
    2          8             0       -0.980290    0.815181    1.250310
    3         15             0       -0.067220    0.679640    0.000010
    4          8             0        1.349250    1.316378    0.000040
    5         20             0        2.442228   -0.608123   -0.000010
    6          8             0       -0.980550    0.815681   -1.250030
    7         20             0       -2.247992   -0.688347    0.000000
 ---------------------------------------------------------------------

 SCF Done:  E(RB+HF-LYP) =  -1997.39686936     A.U. after    8 cycles

 The electronic state is 1-A.
 Alpha  occ. eigenvalues -- -145.57542-145.56071 -77.29917 -19.22731 -19.22262
 Alpha  occ. eigenvalues --  -19.19554 -19.19554 -15.64328 -15.62752 -12.77571
 Alpha  occ. eigenvalues --  -12.77476 -12.77469 -12.75963 -12.75935 -12.75932
 Alpha  occ. eigenvalues --   -6.74489  -4.90943  -4.90802  -4.90708  -2.01281
 Alpha  occ. eigenvalues --   -1.99573  -1.28879  -1.28830  -1.28370  -1.27397
 Alpha  occ. eigenvalues --   -1.26805  -1.26708  -1.11443  -1.04125  -1.01265
 Alpha  occ. eigenvalues --   -1.01111  -0.61213  -0.53194  -0.51402  -0.50524
 Alpha  occ. eigenvalues --   -0.45803  -0.42790  -0.42564  -0.41451  -0.40254
 Alpha  occ. eigenvalues --   -0.38005  -0.36316  -0.34169
 Alpha virt. eigenvalues --   -0.23652  -0.21657  -0.14049  -0.13680  -0.12203
 Alpha virt. eigenvalues --   -0.12004  -0.11177  -0.08337  -0.07557  -0.06421
 Alpha virt. eigenvalues --   -0.05282  -0.05144  -0.04532  -0.04381  -0.04182

 Mulliken atomic charges:
              1
     1  O   -1.128139
     2  O   -0.883779
     3  P    1.786117
     4  O   -0.864594
     5  Ca   1.525318
     6  O   -0.883735
     7  Ca   1.448811
 Sum of Mulliken charges=   1.00000

 Dipole moment (field-independent basis, Debye):
    X=     2.7775    Y=   -12.3717    Z=    -0.0001  Tot=    12.6797
 Quadrupole moment (field-independent basis, Debye-Ang):
   XX=    21.8866   YY=   -59.4340   ZZ=   -66.1602
   XY=     1.3294   XZ=     0.0001   YZ=    -0.0002

 Normal termination of Gaussian 03 at Fri Jun 12 17:49:03 2015.
