 Gaussian 03, Revision E.01,
 Gaussian 03:  EM64T-G03RevE.01 11-Sep-2007

 ----------------------------------------------------
 # b3lyp/6-31+G(d,p) int=ultrafine pop=(ReadRadii,MK)
 ----------------------------------------------------

 ----------------------------------------
 mol_17.28.1.pdbcccc_plusQ.z58542.zip.xyz
 ----------------------------------------
 Symbolic Z-matrix:
 Charge =  1 Multiplicity = 1

                         Standard orientation:
 ---------------------------------------------------------------------
 Center     Atomic     Atomic              Coordinates (Angstroms)
 Number     Number      Type              X           Y           Z
 ---------------------------------------------------------------------
    1          8             0       -3.410752   -0.653217   -0.012721
    2          8             0        0.824448   -0.880902    0.779369
    3         20             0        3.075908   -0.693935   -0.006431
    4         15             0       -3.170500    0.867033   -0.007221
    5         20             0       -1.221873   -1.492430    0.007619
    6          8             0       -1.613300    1.040351    0.011839
    7          8             0        2.874901    1.416055   -0.003431
    8         20             0        0.726131    1.518668    0.004669
    9          8             0        0.818978   -0.878732   -0.776161
 ---------------------------------------------------------------------

 SCF Done:  E(RB+HF-LYP) =  -2750.19922607     A.U. after    8 cycles

 The electronic state is 1-A.
 Alpha  occ. eigenvalues -- -145.53301-145.48103-145.46500 -77.31646 -19.29958
 Alpha  occ. eigenvalues --  -19.29135 -19.27658 -19.27652 -19.10311 -15.60147
 Alpha  occ. eigenvalues --  -15.54939 -15.53359 -12.73383 -12.73378 -12.73213
 Alpha  occ. eigenvalues --  -12.68158 -12.68122 -12.68043 -12.66613 -12.66576
 Alpha  occ. eigenvalues --  -12.66408  -6.77271  -4.93703  -4.93471  -4.93053
 Alpha  occ. eigenvalues --   -1.97332  -1.92137  -1.90669  -1.25315  -1.25144
 Alpha  occ. eigenvalues --   -1.25004  -1.20358  -1.19792  -1.19241  -1.18529
 Alpha  occ. eigenvalues --   -1.18453  -1.17871  -1.15553  -1.10915  -1.09764
 Alpha  occ. eigenvalues --   -0.91291  -0.84521  -0.68930  -0.57897  -0.55273
 Alpha  occ. eigenvalues --   -0.54484  -0.51225  -0.50450  -0.49466  -0.46901
 Alpha  occ. eigenvalues --   -0.45453  -0.42700  -0.38848  -0.36717  -0.30147
 Alpha  occ. eigenvalues --   -0.28563  -0.28510
 Alpha virt. eigenvalues --   -0.21596  -0.19565  -0.17911  -0.15028  -0.15010
 Alpha virt. eigenvalues --   -0.11256  -0.10531  -0.09853  -0.09288  -0.08793
 Alpha virt. eigenvalues --   -0.08674  -0.08136  -0.07317  -0.06844  -0.06404

 Mulliken atomic charges:
              1
     1  O   -0.647437
     2  O   -0.694090
     3  Ca   1.362963
     4  P    0.680183
     5  Ca   1.503254
     6  O   -0.742651
     7  O   -1.123806
     8  Ca   1.356182
     9  O   -0.694598
 Sum of Mulliken charges=   1.00000

 Dipole moment (field-independent basis, Debye):
    X=    -0.3531    Y=    -7.6419    Z=     0.0399  Tot=     7.6502
 Quadrupole moment (field-independent basis, Debye-Ang):
   XX=   -63.4177   YY=   -57.0645   ZZ=   -77.2560
   XY=   -23.1652   XZ=    -0.1912   YZ=    -0.0353

 Normal termination of Gaussian 03 at Fri Jun 12 18:08:26 2015.
