 Gaussian 03, Revision E.01,
 Gaussian 03:  EM64T-G03RevE.01 11-Sep-2007

 ----------------------------------------------------
 # b3lyp/6-31+G(d,p) int=ultrafine pop=(ReadRadii,MK)
 ----------------------------------------------------

 ---------------------------------------
 mol_17.27.8.pdbccc_plusQ.z58529.zip.xyz
 ---------------------------------------
 Symbolic Z-matrix:
 Charge =  1 Multiplicity = 1

                         Standard orientation:
 ---------------------------------------------------------------------
 Center     Atomic     Atomic              Coordinates (Angstroms)
 Number     Number      Type              X           Y           Z
 ---------------------------------------------------------------------
    1          8             0        0.164412   -1.445051    0.930618
    2          8             0        0.498828   -0.021172   -1.701422
    3         20             0       -1.286637   -1.230816   -0.919822
    4          8             0       -2.560042    0.087849    0.390698
    5          8             0       -1.258920    0.762624    0.698888
    6         15             0       -0.047393   -0.048040    1.763448
    7          8             0        1.160851    0.881035    1.114418
    8         20             0        2.032485   -0.783048   -0.268612
    9         20             0        0.087645    1.943779   -0.707432
 ---------------------------------------------------------------------

 SCF Done:  E(RB+HF-LYP) =  -2750.19417665     A.U. after    9 cycles

 The electronic state is 1-A.
 Alpha  occ. eigenvalues -- -145.51664-145.51592-145.48716 -77.27299 -19.29100
 Alpha  occ. eigenvalues --  -19.23564 -19.23482 -19.23302 -19.17355 -15.58476
 Alpha  occ. eigenvalues --  -15.58418 -15.55564 -12.71690 -12.71652 -12.71625
 Alpha  occ. eigenvalues --  -12.71604 -12.71590 -12.71545 -12.68792 -12.68758
 Alpha  occ. eigenvalues --  -12.68658  -6.72395  -4.88801  -4.88687  -4.88153
 Alpha  occ. eigenvalues --   -1.95720  -1.95665  -1.92872  -1.23974  -1.23549
 Alpha  occ. eigenvalues --   -1.23410  -1.23059  -1.23025  -1.22525  -1.21071
 Alpha  occ. eigenvalues --   -1.20546  -1.19976  -1.13377  -1.07560  -1.03103
 Alpha  occ. eigenvalues --   -0.92325  -0.90596  -0.65536  -0.55299  -0.53392
 Alpha  occ. eigenvalues --   -0.51717  -0.49581  -0.46911  -0.44118  -0.42324
 Alpha  occ. eigenvalues --   -0.40294  -0.37801  -0.37637  -0.36827  -0.35225
 Alpha  occ. eigenvalues --   -0.33502  -0.32028
 Alpha virt. eigenvalues --   -0.20902  -0.19064  -0.17421  -0.13458  -0.12278
 Alpha virt. eigenvalues --   -0.11627  -0.10496  -0.10036  -0.08914  -0.08220
 Alpha virt. eigenvalues --   -0.07981  -0.06859  -0.06591  -0.06168  -0.05829

 Mulliken atomic charges:
              1
     1  O   -1.019274
     2  O   -1.261544
     3  Ca   1.417707
     4  O   -0.569204
     5  O   -0.589796
     6  P    1.101633
     7  O   -1.001554
     8  Ca   1.428829
     9  Ca   1.493203
 Sum of Mulliken charges=   1.00000

 Dipole moment (field-independent basis, Debye):
    X=     6.9356    Y=    -0.1525    Z=    -8.5383  Tot=    11.0013
 Quadrupole moment (field-independent basis, Debye-Ang):
   XX=   -58.4007   YY=   -40.8371   ZZ=   -88.3288
   XY=     0.3861   XZ=     9.1524   YZ=    -0.3826

 Normal termination of Gaussian 03 at Fri Jun 12 18:08:28 2015.
