 Gaussian 03, Revision E.01,
 Gaussian 03:  EM64T-G03RevE.01 11-Sep-2007

 ----------------------------------------------------
 # b3lyp/6-31+G(d,p) int=ultrafine pop=(ReadRadii,MK)
 ----------------------------------------------------

 --------------------------------------
 mol_17.26.19.pdbc_plusQ.z58378.zip.xyz
 --------------------------------------
 Symbolic Z-matrix:
 Charge =  1 Multiplicity = 1

                         Standard orientation:
 ---------------------------------------------------------------------
 Center     Atomic     Atomic              Coordinates (Angstroms)
 Number     Number      Type              X           Y           Z
 ---------------------------------------------------------------------
    1          8             0       -0.668048   -1.259957    0.974740
    2          8             0       -0.511470    0.005932   -1.754630
    3          8             0        2.059860    0.000445   -0.101230
    4          8             0        1.628460   -0.004792    1.364920
    5         20             0        0.721229   -1.682276   -0.850530
    6         20             0        0.721141    1.688084   -0.839280
    7          8             0       -0.667932    1.253303    0.983240
    8         15             0       -0.018890   -0.006271    1.842270
    9         20             0       -2.164550    0.000923   -0.278710
 ---------------------------------------------------------------------

 SCF Done:  E(RB+HF-LYP) =  -2750.21012888     A.U. after    8 cycles

 The electronic state is 1-A.
 Alpha  occ. eigenvalues -- -145.50879-145.49977-145.49974 -77.26614 -19.28663
 Alpha  occ. eigenvalues --  -19.25248 -19.22898 -19.22897 -19.16862 -15.57716
 Alpha  occ. eigenvalues --  -15.56795 -15.56793 -12.70923 -12.70888 -12.70842
 Alpha  occ. eigenvalues --  -12.69994 -12.69993 -12.69966 -12.69966 -12.69941
 Alpha  occ. eigenvalues --  -12.69940  -6.71711  -4.88131  -4.88008  -4.87484
 Alpha  occ. eigenvalues --   -1.95025  -1.94085  -1.94030  -1.23111  -1.22775
 Alpha  occ. eigenvalues --   -1.22389  -1.22273  -1.21604  -1.21582  -1.21355
 Alpha  occ. eigenvalues --   -1.21290  -1.20982  -1.13422  -1.06844  -1.02227
 Alpha  occ. eigenvalues --   -0.93398  -0.91717  -0.65001  -0.55628  -0.52562
 Alpha  occ. eigenvalues --   -0.51437  -0.48108  -0.46967  -0.44012  -0.42103
 Alpha  occ. eigenvalues --   -0.39431  -0.38482  -0.37011  -0.36054  -0.35623
 Alpha  occ. eigenvalues --   -0.35474  -0.32661
 Alpha virt. eigenvalues --   -0.20695  -0.18355  -0.17807  -0.13788  -0.12910
 Alpha virt. eigenvalues --   -0.11310  -0.10839  -0.09447  -0.09264  -0.08194
 Alpha virt. eigenvalues --   -0.07389  -0.06437  -0.06182  -0.05880  -0.04928

 Mulliken atomic charges:
              1
     1  O   -1.048783
     2  O   -1.258622
     3  O   -0.650491
     4  O   -0.444138
     5  Ca   1.489935
     6  Ca   1.489972
     7  O   -1.048779
     8  P    1.050317
     9  Ca   1.420588
 Sum of Mulliken charges=   1.00000

 Dipole moment (field-independent basis, Debye):
    X=    -5.1132    Y=     0.0287    Z=    -8.2836  Tot=     9.7346
 Quadrupole moment (field-independent basis, Debye-Ang):
   XX=   -52.5688   YY=   -42.2564   ZZ=   -90.5984
   XY=     0.0287   XZ=    -8.8497   YZ=     0.1618

 Normal termination of Gaussian 03 at Fri Jun 12 18:00:11 2015.
