 Gaussian 03, Revision E.01,
 Gaussian 03:  EM64T-G03RevE.01 11-Sep-2007

 ----------------------------------------------------
 # b3lyp/6-31+G(d,p) int=ultrafine pop=(ReadRadii,MK)
 ----------------------------------------------------

 ----------------------------------------
 mol_17.24.38.pdbccc_plusQ.z58291.zip.xyz
 ----------------------------------------
 Symbolic Z-matrix:
 Charge =  1 Multiplicity = 1

                         Standard orientation:
 ---------------------------------------------------------------------
 Center     Atomic     Atomic              Coordinates (Angstroms)
 Number     Number      Type              X           Y           Z
 ---------------------------------------------------------------------
    1          8             0       -2.523920    1.163191   -0.530620
    2         20             0       -2.529520   -0.927559   -0.152150
    3          8             0       -0.506640   -0.272879    1.337750
    4         15             0        0.444650   -1.136770    0.456810
    5          8             0       -0.416220   -2.004659   -0.486640
    6         20             0        3.110270   -0.340340   -0.157280
    7          8             0        1.011720    0.290060   -0.791270
    8          8             0        1.708090    1.379800    0.024980
    9         20             0       -0.623449    1.898271    0.145140
 ---------------------------------------------------------------------

 SCF Done:  E(RB+HF-LYP) =  -2750.14476427     A.U. after   10 cycles

 The electronic state is 1-A.
 Alpha  occ. eigenvalues -- -145.58542-145.46486-145.44797 -77.27977 -19.31182
 Alpha  occ. eigenvalues --  -19.28365 -19.23408 -19.23316 -19.09167 -15.65319
 Alpha  occ. eigenvalues --  -15.53350 -15.51655 -12.78543 -12.78507 -12.78451
 Alpha  occ. eigenvalues --  -12.66580 -12.66561 -12.66416 -12.64899 -12.64879
 Alpha  occ. eigenvalues --  -12.64703  -6.73392  -4.89925  -4.89600  -4.89240
 Alpha  occ. eigenvalues --   -2.02230  -1.90558  -1.88967  -1.30061  -1.29655
 Alpha  occ. eigenvalues --   -1.29438  -1.18672  -1.18252  -1.17985  -1.17561
 Alpha  occ. eigenvalues --   -1.16751  -1.16138  -1.13668  -1.09855  -1.04325
 Alpha  occ. eigenvalues --   -0.93624  -0.83338  -0.65070  -0.55658  -0.53625
 Alpha  occ. eigenvalues --   -0.53323  -0.50795  -0.49231  -0.45016  -0.41447
 Alpha  occ. eigenvalues --   -0.40605  -0.39758  -0.38780  -0.35551  -0.29120
 Alpha  occ. eigenvalues --   -0.27497  -0.27258
 Alpha virt. eigenvalues --   -0.24092  -0.16233  -0.15745  -0.14718  -0.13759
 Alpha virt. eigenvalues --   -0.12054  -0.11446  -0.09924  -0.09065  -0.07995
 Alpha virt. eigenvalues --   -0.07709  -0.07417  -0.06501  -0.05908  -0.05445

 Mulliken atomic charges:
              1
     1  O   -1.150627
     2  Ca   1.392681
     3  O   -0.863827
     4  P    0.629471
     5  O   -0.766395
     6  Ca   1.438625
     7  O   -0.471497
     8  O   -0.617119
     9  Ca   1.408687
 Sum of Mulliken charges=   1.00000

 Dipole moment (field-independent basis, Debye):
    X=    11.2203    Y=    -2.2794    Z=     1.3568  Tot=    11.5296
 Quadrupole moment (field-independent basis, Debye-Ang):
   XX=    -8.8186   YY=   -66.1850   ZZ=   -84.6211
   XY=    11.4394   XZ=    -8.4857   YZ=     5.6711

 Normal termination of Gaussian 03 at Fri Jun 12 17:56:04 2015.
