 Gaussian 03, Revision E.01,
 Gaussian 03:  EM64T-G03RevE.01 11-Sep-2007

 ----------------------------------------------------
 # b3lyp/6-31+G(d,p) int=ultrafine pop=(ReadRadii,MK)
 ----------------------------------------------------

 ---------------------------------------
 mol_17.28.30.pdbcc_plusQ.z58554.zip.xyz
 ---------------------------------------
 Symbolic Z-matrix:
 Charge =  1 Multiplicity = 1

                         Standard orientation:
 ---------------------------------------------------------------------
 Center     Atomic     Atomic              Coordinates (Angstroms)
 Number     Number      Type              X           Y           Z
 ---------------------------------------------------------------------
    1          8             0        3.410910   -0.653311   -0.000029
    2          8             0       -2.874988    1.415923   -0.000239
    3         20             0       -3.075840   -0.694167   -0.000379
    4          8             0       -0.821800   -0.879668    0.777721
    5          8             0       -0.821390   -0.879528   -0.777619
    6         20             0        1.221690   -1.492509    0.000331
    7         15             0        3.170681    0.866969   -0.000599
    8         20             0       -0.726278    1.518982    0.000481
    9          8             0        1.613311    1.040250    0.000211
 ---------------------------------------------------------------------

 SCF Done:  E(RB+HF-LYP) =  -2750.19922748     A.U. after    8 cycles

 The electronic state is 1-A.
 Alpha  occ. eigenvalues -- -145.53298-145.48104-145.46500 -77.31644 -19.29954
 Alpha  occ. eigenvalues --  -19.29132 -19.27656 -19.27650 -19.10312 -15.60143
 Alpha  occ. eigenvalues --  -15.54941 -15.53359 -12.73380 -12.73375 -12.73210
 Alpha  occ. eigenvalues --  -12.68159 -12.68124 -12.68044 -12.66613 -12.66577
 Alpha  occ. eigenvalues --  -12.66408  -6.77268  -4.93700  -4.93468  -4.93050
 Alpha  occ. eigenvalues --   -1.97329  -1.92138  -1.90669  -1.25312  -1.25142
 Alpha  occ. eigenvalues --   -1.25002  -1.20359  -1.19793  -1.19241  -1.18529
 Alpha  occ. eigenvalues --   -1.18453  -1.17870  -1.15549  -1.10919  -1.09759
 Alpha  occ. eigenvalues --   -0.91287  -0.84521  -0.68926  -0.57893  -0.55268
 Alpha  occ. eigenvalues --   -0.54479  -0.51227  -0.50451  -0.49469  -0.46896
 Alpha  occ. eigenvalues --   -0.45448  -0.42698  -0.38845  -0.36714  -0.30148
 Alpha  occ. eigenvalues --   -0.28563  -0.28510
 Alpha virt. eigenvalues --   -0.21594  -0.19565  -0.17912  -0.15028  -0.15005
 Alpha virt. eigenvalues --   -0.11254  -0.10529  -0.09853  -0.09287  -0.08792
 Alpha virt. eigenvalues --   -0.08674  -0.08136  -0.07317  -0.06844  -0.06404

 Mulliken atomic charges:
              1
     1  O   -0.647480
     2  O   -1.123844
     3  Ca   1.362984
     4  O   -0.694374
     5  O   -0.694287
     6  Ca   1.503247
     7  P    0.680205
     8  Ca   1.356276
     9  O   -0.742728
 Sum of Mulliken charges=   1.00000

 Dipole moment (field-independent basis, Debye):
    X=     0.3505    Y=    -7.6419    Z=     0.0024  Tot=     7.6499
 Quadrupole moment (field-independent basis, Debye-Ang):
   XX=   -63.4278   YY=   -57.0488   ZZ=   -77.2556
   XY=    23.1696   XZ=     0.0037   YZ=     0.0059

 Normal termination of Gaussian 03 at Fri Jun 12 18:09:29 2015.
