 Gaussian 03, Revision E.01,
 Gaussian 03:  EM64T-G03RevE.01 11-Sep-2007

 ----------------------------------------------------
 # b3lyp/6-31+G(d,p) int=ultrafine pop=(ReadRadii,MK)
 ----------------------------------------------------

 ----------------------------------------
 mol_16.4.33.pdb_plusQ.out.z51583.zip.xyz
 ----------------------------------------
 Symbolic Z-matrix:
 Charge =  1 Multiplicity = 1

                         Standard orientation:
 ---------------------------------------------------------------------
 Center     Atomic     Atomic              Coordinates (Angstroms)
 Number     Number      Type              X           Y           Z
 ---------------------------------------------------------------------
    1          8             0       -1.347692    1.315908    0.000590
    2         15             0        0.065869    0.673029   -0.000890
    3          8             0        0.980659    0.809150   -1.250200
    4          8             0        0.979299    0.809740    1.250230
    5         20             0        2.257580   -0.681699    0.000600
    6          8             0       -0.258220   -0.982371   -0.000880
    7         20             0       -2.448600   -0.604043    0.000170
 ---------------------------------------------------------------------

 SCF Done:  E(RB+HF-LYP) =  -1997.39686698     A.U. after    8 cycles

 The electronic state is 1-A.
 Alpha  occ. eigenvalues -- -145.57525-145.56102 -77.29885 -19.22666 -19.22235
 Alpha  occ. eigenvalues --  -19.19536 -19.19518 -15.64310 -15.62783 -12.77553
 Alpha  occ. eigenvalues --  -12.77458 -12.77451 -12.75996 -12.75966 -12.75963
 Alpha  occ. eigenvalues --   -6.74455  -4.90906  -4.90769  -4.90676  -2.01261
 Alpha  occ. eigenvalues --   -1.99600  -1.28859  -1.28807  -1.28349  -1.27413
 Alpha  occ. eigenvalues --   -1.26838  -1.26730  -1.11426  -1.04080  -1.01259
 Alpha  occ. eigenvalues --   -1.01075  -0.61175  -0.53156  -0.51378  -0.50515
 Alpha  occ. eigenvalues --   -0.45754  -0.42745  -0.42544  -0.41410  -0.40214
 Alpha  occ. eigenvalues --   -0.37959  -0.36291  -0.34147
 Alpha virt. eigenvalues --   -0.23633  -0.21672  -0.14028  -0.13653  -0.12210
 Alpha virt. eigenvalues --   -0.12005  -0.11161  -0.08341  -0.07549  -0.06421
 Alpha virt. eigenvalues --   -0.05276  -0.05138  -0.04531  -0.04383  -0.04178

 Mulliken atomic charges:
              1
     1  O   -0.865137
     2  P    1.787801
     3  O   -0.884726
     4  O   -0.885976
     5  Ca   1.449008
     6  O   -1.126376
     7  Ca   1.525405
 Sum of Mulliken charges=   1.00000

 Dipole moment (field-independent basis, Debye):
    X=    -2.7412    Y=   -12.2958    Z=    -0.0021  Tot=    12.5976
 Quadrupole moment (field-independent basis, Debye-Ang):
   XX=    22.4779   YY=   -59.5554   ZZ=   -66.1791
   XY=    -1.3110   XZ=     0.0066   YZ=    -0.0217

 Normal termination of Gaussian 03 at Fri Jun 12 17:48:19 2015.
