 Gaussian 03, Revision E.01,
 Gaussian 03:  EM64T-G03RevE.01 11-Sep-2007

 ----------------------------------------------------
 # b3lyp/6-31+G(d,p) int=ultrafine pop=(ReadRadii,MK)
 ----------------------------------------------------

 -----------------------------------------
 mol_17.28.49.pdbcccc_plusQ.z58573.zip.xyz
 -----------------------------------------
 Symbolic Z-matrix:
 Charge =  1 Multiplicity = 1

                         Standard orientation:
 ---------------------------------------------------------------------
 Center     Atomic     Atomic              Coordinates (Angstroms)
 Number     Number      Type              X           Y           Z
 ---------------------------------------------------------------------
    1          8             0       -2.462879   -1.610551    0.065771
    2          8             0       -1.401399    0.242049   -1.273159
    3         15             0       -2.545599   -0.062181   -0.145809
    4          8             0       -1.392919    0.309019    1.257411
    5          8             0       -0.977150    1.699289    1.392691
    6         20             0        0.185390    1.681520   -0.530859
    7          8             0        1.644591   -0.111769   -0.245809
    8         20             0        3.740001   -0.332718    0.154811
    9         20             0       -0.180289   -1.513380    0.006641
 ---------------------------------------------------------------------

 SCF Done:  E(RB+HF-LYP) =  -2750.10235823     A.U. after   20 cycles

 The electronic state is 1-A.
 Alpha  occ. eigenvalues -- -145.58553-145.49032-145.48493 -77.24477 -19.27614
 Alpha  occ. eigenvalues --  -19.22357 -19.21607 -19.21079 -19.19649 -15.65446
 Alpha  occ. eigenvalues --  -15.55869 -15.55342 -12.78665 -12.78656 -12.78509
 Alpha  occ. eigenvalues --  -12.69103 -12.69093 -12.68937 -12.68574 -12.68506
 Alpha  occ. eigenvalues --  -12.68459  -6.69757  -4.86160  -4.86002  -4.85631
 Alpha  occ. eigenvalues --   -2.02433  -1.93108  -1.92657  -1.30048  -1.29955
 Alpha  occ. eigenvalues --   -1.29181  -1.21682  -1.20741  -1.20622  -1.20314
 Alpha  occ. eigenvalues --   -1.20153  -1.19779  -1.12531  -1.05654  -1.00596
 Alpha  occ. eigenvalues --   -0.96132  -0.87693  -0.61937  -0.52848  -0.49611
 Alpha  occ. eigenvalues --   -0.49361  -0.46612  -0.44896  -0.42227  -0.41551
 Alpha  occ. eigenvalues --   -0.40446  -0.39574  -0.38340  -0.36664  -0.33432
 Alpha  occ. eigenvalues --   -0.30986  -0.29636
 Alpha virt. eigenvalues --   -0.27251  -0.19159  -0.19036  -0.17277  -0.15960
 Alpha virt. eigenvalues --   -0.13876  -0.10199  -0.09890  -0.09314  -0.08544
 Alpha virt. eigenvalues --   -0.07523  -0.07113  -0.06595  -0.06279  -0.06129

 Mulliken atomic charges:
              1
     1  O   -0.797508
     2  O   -0.927817
     3  P    0.983191
     4  O   -0.389770
     5  O   -0.566752
     6  Ca   1.412157
     7  O   -1.279603
     8  Ca   1.246144
     9  Ca   1.319958
 Sum of Mulliken charges=   1.00000

 Dipole moment (field-independent basis, Debye):
    X=    22.3273    Y=    -0.7824    Z=    -3.0444  Tot=    22.5475
 Quadrupole moment (field-independent basis, Debye-Ang):
   XX=   -28.9125   YY=   -54.8091   ZZ=   -88.9955
   XY=    -6.1295   XZ=     6.3861   YZ=   -12.5806

 Normal termination of Gaussian 03 at Fri Jun 12 18:12:29 2015.
