 Gaussian 03, Revision E.01,
 Gaussian 03:  EM64T-G03RevE.01 11-Sep-2007

 ----------------------------------------------------
 # b3lyp/6-31+G(d,p) int=ultrafine pop=(ReadRadii,MK)
 ----------------------------------------------------

 ---------------------------------------
 mol_17.25.8.pdbccc_plusQ.z58366.zip.xyz
 ---------------------------------------
 Symbolic Z-matrix:
 Charge =  1 Multiplicity = 1

                         Standard orientation:
 ---------------------------------------------------------------------
 Center     Atomic     Atomic              Coordinates (Angstroms)
 Number     Number      Type              X           Y           Z
 ---------------------------------------------------------------------
    1          8             0       -3.147855   -2.408965    0.000000
    2          8             0       -3.152858   -4.923675    0.000000
    3          8             0       -4.006313   -1.159614    0.000000
    4         15             0       -4.102077   -3.775674    0.000000
    5         20             0       -1.840842   -0.461877    0.000000
    6          8             0        0.000000    0.649190    0.000000
    7         20             0        1.862452    1.689878    0.000000
    8          8             0        3.809283    2.715745    0.000000
    9         20             0        5.654044    3.654682    0.000000
 ---------------------------------------------------------------------

 SCF Done:  E(RB+HF-LYP) =  -2750.04316328     A.U. after   14 cycles

 The electronic state is 1-A'.
 Alpha  occ. eigenvalues -- -145.58796-145.43911-145.42864 -77.23313 -19.28332
 Alpha  occ. eigenvalues --  -19.20874 -19.20849 -19.17694 -19.10879 -15.65564
 Alpha  occ. eigenvalues --  -15.50930 -15.49811 -12.78783 -12.78783 -12.78648
 Alpha  occ. eigenvalues --  -12.64196 -12.64196 -12.63876 -12.63086 -12.63055
 Alpha  occ. eigenvalues --  -12.62791  -6.69131  -4.85468  -4.85409  -4.84882
 Alpha  occ. eigenvalues --   -2.02434  -1.88437  -1.87248  -1.29950  -1.29949
 Alpha  occ. eigenvalues --   -1.29052  -1.16538  -1.16536  -1.16283  -1.15304
 Alpha  occ. eigenvalues --   -1.15201  -1.15035  -1.11387  -1.04673  -0.91726
 Alpha  occ. eigenvalues --   -0.89155  -0.84838  -0.62352  -0.50439  -0.49527
 Alpha  occ. eigenvalues --   -0.48383  -0.40688  -0.40419  -0.38479  -0.35766
 Alpha  occ. eigenvalues --   -0.35765  -0.35216  -0.32926  -0.30855  -0.30204
 Alpha  occ. eigenvalues --   -0.29218  -0.29201
 Alpha virt. eigenvalues --   -0.26085  -0.16154  -0.16153  -0.15764  -0.13869
 Alpha virt. eigenvalues --   -0.13355  -0.11003  -0.08768  -0.08748  -0.08539
 Alpha virt. eigenvalues --   -0.07983  -0.06064  -0.05985  -0.05745  -0.05711

 Mulliken atomic charges:
              1
     1  O   -0.353179
     2  O   -0.529050
     3  O   -0.551120
     4  P    0.702704
     5  Ca   1.381938
     6  O   -1.239088
     7  Ca   1.299672
     8  O   -1.176887
     9  Ca   1.465010
 Sum of Mulliken charges=   1.00000

 Dipole moment (field-independent basis, Debye):
    X=    28.4225    Y=    20.5685    Z=     0.0000  Tot=    35.0843
 Quadrupole moment (field-independent basis, Debye-Ang):
   XX=    79.5605   YY=   -30.3622   ZZ=   -74.6939
   XY=    99.4599   XZ=     0.0000   YZ=     0.0000

 Normal termination of Gaussian 03 at Fri Jun 12 17:59:05 2015.
