 Gaussian 03, Revision E.01,
 Gaussian 03:  EM64T-G03RevE.01 11-Sep-2007

 ----------------------------------------------------
 # b3lyp/6-31+G(d,p) int=ultrafine pop=(ReadRadii,MK)
 ----------------------------------------------------

 -----------------------------------------
 mol_17.24.58.pdbcccc_plusQ.z58311.zip.xyz
 -----------------------------------------
 Symbolic Z-matrix:
 Charge =  1 Multiplicity = 1

                         Standard orientation:
 ---------------------------------------------------------------------
 Center     Atomic     Atomic              Coordinates (Angstroms)
 Number     Number      Type              X           Y           Z
 ---------------------------------------------------------------------
    1          8             0        4.012010   -0.000158    0.000933
    2         15             0        2.539710   -0.000079   -0.000017
    3          8             0        1.721061   -1.277369   -0.000677
    4          8             0        1.721159    1.277391   -0.000207
    5         20             0       -0.089041    2.671920   -0.000047
    6          8             0       -2.040021    1.896048   -0.000357
    7         20             0       -3.076170    0.000048    0.000133
    8          8             0       -2.040169   -1.896032    0.000913
    9         20             0       -0.089188   -2.671860   -0.000317
 ---------------------------------------------------------------------

 SCF Done:  E(RB+HF-LYP) =  -2750.22997880     A.U. after    9 cycles

 The electronic state is 1-A.
 Alpha  occ. eigenvalues -- -145.50368-145.50366-145.43695 -77.35674 -19.29664
 Alpha  occ. eigenvalues --  -19.29663 -19.27210 -19.12791 -19.12782 -15.57237
 Alpha  occ. eigenvalues --  -15.57235 -15.50718 -12.70489 -12.70488 -12.70441
 Alpha  occ. eigenvalues --  -12.70440 -12.70284 -12.70283 -12.63976 -12.63925
 Alpha  occ. eigenvalues --  -12.63715  -6.80858  -4.97481  -4.97010  -4.96909
 Alpha  occ. eigenvalues --   -1.94438  -1.94438  -1.88186  -1.22345  -1.22266
 Alpha  occ. eigenvalues --   -1.22265  -1.22160  -1.21408  -1.21336  -1.18017
 Alpha  occ. eigenvalues --   -1.16223  -1.15922  -1.15022  -1.11183  -1.10073
 Alpha  occ. eigenvalues --   -0.87144  -0.86554  -0.67798  -0.59920  -0.56383
 Alpha  occ. eigenvalues --   -0.55704  -0.49477  -0.47920  -0.47910  -0.45159
 Alpha  occ. eigenvalues --   -0.42124  -0.34001  -0.32345  -0.31540  -0.31170
 Alpha  occ. eigenvalues --   -0.31041  -0.30603
 Alpha virt. eigenvalues --   -0.19988  -0.18455  -0.15808  -0.14757  -0.14544
 Alpha virt. eigenvalues --   -0.11765  -0.10810  -0.09983  -0.08492  -0.08319
 Alpha virt. eigenvalues --   -0.07869  -0.07732  -0.06547  -0.06105  -0.05298

 Mulliken atomic charges:
              1
     1  O   -0.605221
     2  P    1.591724
     3  O   -0.883329
     4  O   -0.883359
     5  Ca   1.447435
     6  O   -1.248465
     7  Ca   1.382187
     8  O   -1.248311
     9  Ca   1.447339
 Sum of Mulliken charges=   1.00000

 Dipole moment (field-independent basis, Debye):
    X=    -3.3566    Y=     0.0002    Z=    -0.0046  Tot=     3.3566
 Quadrupole moment (field-independent basis, Debye-Ang):
   XX=   -79.1281   YY=   -24.1262   ZZ=   -72.7289
   XY=     0.0013   XZ=    -0.0017   YZ=     0.0185

 Normal termination of Gaussian 03 at Fri Jun 12 17:56:41 2015.
