 Gaussian 03, Revision E.01,
 Gaussian 03:  EM64T-G03RevE.01 11-Sep-2007

 ----------------------------------------------------
 # b3lyp/6-31+G(d,p) int=ultrafine pop=(ReadRadii,MK)
 ----------------------------------------------------

 -------------------------------------
 mol_17.29.27.pdb_plusQ.z58608.zip.xyz
 -------------------------------------
 Symbolic Z-matrix:
 Charge =  1 Multiplicity = 1

                         Standard orientation:
 ---------------------------------------------------------------------
 Center     Atomic     Atomic              Coordinates (Angstroms)
 Number     Number      Type              X           Y           Z
 ---------------------------------------------------------------------
    1          8             0       -0.499020   -0.015233   -1.701180
    2         20             0        1.283455   -1.230475   -0.921980
    3          8             0        2.561630    0.082690    0.388940
    4          8             0        1.260807    0.756864    0.700560
    5         15             0        0.046890   -0.053651    1.763320
    6          8             0       -1.158484    0.880074    1.116810
    7         20             0       -0.082618    1.946019   -0.702070
    8          8             0       -0.168304   -1.447861    0.926800
    9         20             0       -2.034657   -0.777919   -0.271210
 ---------------------------------------------------------------------

 SCF Done:  E(RB+HF-LYP) =  -2750.19417660     A.U. after    9 cycles

 The electronic state is 1-A.
 Alpha  occ. eigenvalues -- -145.51669-145.51599-145.48701 -77.27302 -19.29096
 Alpha  occ. eigenvalues --  -19.23572 -19.23487 -19.23307 -19.17354 -15.58481
 Alpha  occ. eigenvalues --  -15.58425 -15.55549 -12.71694 -12.71657 -12.71632
 Alpha  occ. eigenvalues --  -12.71608 -12.71597 -12.71552 -12.68777 -12.68743
 Alpha  occ. eigenvalues --  -12.68643  -6.72399  -4.88805  -4.88691  -4.88157
 Alpha  occ. eigenvalues --   -1.95725  -1.95670  -1.92860  -1.23978  -1.23553
 Alpha  occ. eigenvalues --   -1.23416  -1.23064  -1.23030  -1.22530  -1.21065
 Alpha  occ. eigenvalues --   -1.20535  -1.19965  -1.13364  -1.07572  -1.03114
 Alpha  occ. eigenvalues --   -0.92325  -0.90599  -0.65537  -0.55304  -0.53393
 Alpha  occ. eigenvalues --   -0.51717  -0.49582  -0.46919  -0.44128  -0.42332
 Alpha  occ. eigenvalues --   -0.40301  -0.37802  -0.37637  -0.36831  -0.35228
 Alpha  occ. eigenvalues --   -0.33507  -0.32028
 Alpha virt. eigenvalues --   -0.20905  -0.19067  -0.17413  -0.13459  -0.12276
 Alpha virt. eigenvalues --   -0.11628  -0.10499  -0.10038  -0.08918  -0.08221
 Alpha virt. eigenvalues --   -0.07984  -0.06859  -0.06591  -0.06167  -0.05828

 Mulliken atomic charges:
              1
     1  O   -1.261561
     2  Ca   1.417287
     3  O   -0.568898
     4  O   -0.590722
     5  P    1.101703
     6  O   -1.001289
     7  Ca   1.493494
     8  O   -1.019076
     9  Ca   1.429062
 Sum of Mulliken charges=   1.00000

 Dipole moment (field-independent basis, Debye):
    X=    -6.9460    Y=    -0.1080    Z=    -8.5290  Tot=    11.0001
 Quadrupole moment (field-independent basis, Debye-Ang):
   XX=   -58.4114   YY=   -40.8385   ZZ=   -88.3341
   XY=    -0.3129   XZ=    -9.1275   YZ=    -0.2408

 Normal termination of Gaussian 03 at Fri Jun 12 18:12:54 2015.
