 Gaussian 03, Revision E.01,
 Gaussian 03:  EM64T-G03RevE.01 11-Sep-2007

 ----------------------------------------------------
 # b3lyp/6-31+G(d,p) int=ultrafine pop=(ReadRadii,MK)
 ----------------------------------------------------

 ----------------------------------------
 mol_17.29.21.pdbccc_plusQ.z58602.zip.xyz
 ----------------------------------------
 Symbolic Z-matrix:
 Charge =  1 Multiplicity = 1

                         Standard orientation:
 ---------------------------------------------------------------------
 Center     Atomic     Atomic              Coordinates (Angstroms)
 Number     Number      Type              X           Y           Z
 ---------------------------------------------------------------------
    1          8             0       -0.498429   -0.012165   -1.701131
    2         20             0        1.284724   -1.228175   -0.923801
    3          8             0        2.561481    0.083328    0.390069
    4          8             0        1.260265    0.756565    0.702279
    5         15             0        0.046350   -0.056028    1.763539
    6          8             0       -1.159615    0.877618    1.117889
    7         20             0       -0.084249    1.947002   -0.699951
    8          8             0       -0.167487   -1.449417    0.924909
    9         20             0       -2.033724   -0.779177   -0.272511
 ---------------------------------------------------------------------

 SCF Done:  E(RB+HF-LYP) =  -2750.19417669     A.U. after    9 cycles

 The electronic state is 1-A.
 Alpha  occ. eigenvalues -- -145.51665-145.51599-145.48708 -77.27301 -19.29092
 Alpha  occ. eigenvalues --  -19.23571 -19.23484 -19.23304 -19.17356 -15.58477
 Alpha  occ. eigenvalues --  -15.58425 -15.55556 -12.71691 -12.71653 -12.71632
 Alpha  occ. eigenvalues --  -12.71605 -12.71597 -12.71552 -12.68784 -12.68750
 Alpha  occ. eigenvalues --  -12.68650  -6.72397  -4.88803  -4.88689  -4.88155
 Alpha  occ. eigenvalues --   -1.95724  -1.95668  -1.92865  -1.23975  -1.23549
 Alpha  occ. eigenvalues --   -1.23415  -1.23064  -1.23027  -1.22528  -1.21068
 Alpha  occ. eigenvalues --   -1.20540  -1.19970  -1.13359  -1.07565  -1.03109
 Alpha  occ. eigenvalues --   -0.92329  -0.90594  -0.65533  -0.55297  -0.53387
 Alpha  occ. eigenvalues --   -0.51710  -0.49575  -0.46913  -0.44122  -0.42327
 Alpha  occ. eigenvalues --   -0.40297  -0.37808  -0.37641  -0.36832  -0.35230
 Alpha  occ. eigenvalues --   -0.33502  -0.32026
 Alpha virt. eigenvalues --   -0.20905  -0.19067  -0.17417  -0.13459  -0.12278
 Alpha virt. eigenvalues --   -0.11629  -0.10500  -0.10038  -0.08918  -0.08222
 Alpha virt. eigenvalues --   -0.07983  -0.06859  -0.06592  -0.06168  -0.05829

 Mulliken atomic charges:
              1
     1  O   -1.261615
     2  Ca   1.417406
     3  O   -0.568913
     4  O   -0.590700
     5  P    1.101781
     6  O   -1.001236
     7  Ca   1.493485
     8  O   -1.019160
     9  Ca   1.428952
 Sum of Mulliken charges=   1.00000

 Dipole moment (field-independent basis, Debye):
    X=    -6.9435    Y=    -0.1030    Z=    -8.5389  Tot=    11.0062
 Quadrupole moment (field-independent basis, Debye-Ang):
   XX=   -58.4156   YY=   -40.8392   ZZ=   -88.3247
   XY=    -0.3114   XZ=    -9.1273   YZ=    -0.1753

 Normal termination of Gaussian 03 at Fri Jun 12 18:12:21 2015.
