 Gaussian 03, Revision E.01,
 Gaussian 03:  EM64T-G03RevE.01 11-Sep-2007

 ----------------------------------------------------
 # b3lyp/6-31+G(d,p) int=ultrafine pop=(ReadRadii,MK)
 ----------------------------------------------------

 --------------------------------------
 mol_17.24.19.pdbc_plusQ.z58274.zip.xyz
 --------------------------------------
 Symbolic Z-matrix:
 Charge =  1 Multiplicity = 1

                         Standard orientation:
 ---------------------------------------------------------------------
 Center     Atomic     Atomic              Coordinates (Angstroms)
 Number     Number      Type              X           Y           Z
 ---------------------------------------------------------------------
    1          8             0        3.591629    0.534385    0.000141
    2          8             0       -0.624691    1.105200   -0.000459
    3         20             0       -2.870581    1.038098    0.000151
    4         20             0        1.481478    1.568943   -0.000069
    5         15             0        3.250031   -0.966305    0.000201
    6          8             0        1.686811   -1.040217    0.000131
    7         20             0       -0.679789   -1.278210   -0.000469
    8          8             0       -2.787359   -1.054752    0.784991
    9          8             0       -2.787969   -1.054872   -0.784219
 ---------------------------------------------------------------------

 SCF Done:  E(RB+HF-LYP) =  -2750.21059125     A.U. after    9 cycles

 The electronic state is 1-A.
 Alpha  occ. eigenvalues -- -145.52558-145.47902-145.45929 -77.31436 -19.29696
 Alpha  occ. eigenvalues --  -19.28907 -19.20254 -19.20249 -19.17093 -15.59458
 Alpha  occ. eigenvalues --  -15.54770 -15.52792 -12.72722 -12.72680 -12.72478
 Alpha  occ. eigenvalues --  -12.67980 -12.67949 -12.67879 -12.66030 -12.65992
 Alpha  occ. eigenvalues --  -12.65877  -6.77036  -4.93466  -4.93240  -4.92822
 Alpha  occ. eigenvalues --   -1.96690  -1.92075  -1.90160  -1.24614  -1.24613
 Alpha  occ. eigenvalues --   -1.23576  -1.20502  -1.19684  -1.19272  -1.18006
 Alpha  occ. eigenvalues --   -1.17959  -1.17613  -1.15366  -1.09605  -1.02798
 Alpha  occ. eigenvalues --   -0.91874  -0.84035  -0.68626  -0.57621  -0.54921
 Alpha  occ. eigenvalues --   -0.54233  -0.46666  -0.45218  -0.43696  -0.42880
 Alpha  occ. eigenvalues --   -0.41967  -0.41269  -0.37526  -0.36622  -0.35917
 Alpha  occ. eigenvalues --   -0.30800  -0.29151
 Alpha virt. eigenvalues --   -0.21354  -0.20120  -0.17696  -0.14556  -0.13030
 Alpha virt. eigenvalues --   -0.11138  -0.10817  -0.10362  -0.09100  -0.08476
 Alpha virt. eigenvalues --   -0.07858  -0.07111  -0.06764  -0.06248  -0.05628

 Mulliken atomic charges:
              1
     1  O   -0.655726
     2  O   -1.322766
     3  Ca   1.457018
     4  Ca   1.495980
     5  P    0.680222
     6  O   -0.739672
     7  Ca   1.393380
     8  O   -0.654213
     9  O   -0.654223
 Sum of Mulliken charges=   1.00000

 Dipole moment (field-independent basis, Debye):
    X=     1.5381    Y=     9.0221    Z=    -0.0023  Tot=     9.1523
 Quadrupole moment (field-independent basis, Debye-Ang):
   XX=   -64.0782   YY=   -51.7062   ZZ=   -77.1284
   XY=   -21.8710   XZ=     0.0012   YZ=     0.0111

 Normal termination of Gaussian 03 at Fri Jun 12 17:55:09 2015.
