 Gaussian 03, Revision E.01,
 Gaussian 03:  EM64T-G03RevE.01 11-Sep-2007

 ----------------------------------------------------
 # b3lyp/6-31+G(d,p) int=ultrafine pop=(ReadRadii,MK)
 ----------------------------------------------------

 -------------------------------------
 mol_17.27.22.pdb_plusQ.z58490.zip.xyz
 -------------------------------------
 Symbolic Z-matrix:
 Charge =  1 Multiplicity = 1

                         Standard orientation:
 ---------------------------------------------------------------------
 Center     Atomic     Atomic              Coordinates (Angstroms)
 Number     Number      Type              X           Y           Z
 ---------------------------------------------------------------------
    1          8             0       -0.007781    1.267371    1.202881
    2          8             0       -4.008842   -0.003546   -0.385119
    3         20             0       -1.850292   -0.027968    0.206741
    4         15             0        0.925168    0.002370    1.544781
    5          8             0        0.025667   -1.284169    1.192371
    6         20             0        1.036347   -1.739680   -0.867549
    7          8             0       -0.220392   -0.002109   -1.480979
    8         20             0        0.986769    1.765960   -0.854239
    9          8             0        2.044598    0.022229    0.362001
 ---------------------------------------------------------------------

 SCF Done:  E(RB+HF-LYP) =  -2750.13177657     A.U. after   18 cycles

 The electronic state is 1-A.
 Alpha  occ. eigenvalues -- -145.54372-145.54368-145.46596 -77.31606 -19.27364
 Alpha  occ. eigenvalues --  -19.27012 -19.26972 -19.24475 -19.20315 -15.61168
 Alpha  occ. eigenvalues --  -15.61163 -15.53503 -12.74378 -12.74375 -12.74344
 Alpha  occ. eigenvalues --  -12.74341 -12.74303 -12.74299 -12.66756 -12.66707
 Alpha  occ. eigenvalues --  -12.66560  -6.76673  -4.93007  -4.92989  -4.92700
 Alpha  occ. eigenvalues --   -1.98340  -1.98302  -1.90922  -1.26507  -1.26016
 Alpha  occ. eigenvalues --   -1.25953  -1.25701  -1.25623  -1.25165  -1.18953
 Alpha  occ. eigenvalues --   -1.18821  -1.18452  -1.13860  -1.07081  -1.07041
 Alpha  occ. eigenvalues --   -0.94953  -0.93752  -0.67346  -0.56556  -0.56344
 Alpha  occ. eigenvalues --   -0.54257  -0.49233  -0.48805  -0.44122  -0.43964
 Alpha  occ. eigenvalues --   -0.43250  -0.40126  -0.39691  -0.37984  -0.37055
 Alpha  occ. eigenvalues --   -0.36107  -0.33479
 Alpha virt. eigenvalues --   -0.31047  -0.22193  -0.20830  -0.15135  -0.13387
 Alpha virt. eigenvalues --   -0.13009  -0.12152  -0.11853  -0.09007  -0.08140
 Alpha virt. eigenvalues --   -0.07782  -0.06995  -0.06902  -0.06235  -0.05588

 Mulliken atomic charges:
              1
     1  O   -0.916486
     2  O   -0.501131
     3  Ca   1.337954
     4  P    1.156567
     5  O   -0.915184
     6  Ca   1.495611
     7  O   -1.199868
     8  Ca   1.494606
     9  O   -0.952070
 Sum of Mulliken charges=   1.00000

 Dipole moment (field-independent basis, Debye):
    X=     9.7387    Y=     0.0079    Z=    -6.1957  Tot=    11.5425
 Quadrupole moment (field-independent basis, Debye-Ang):
   XX=   -93.1074   YY=   -37.0217   ZZ=   -79.8675
   XY=    -0.1432   XZ=   -22.7473   YZ=    -0.0761

 Normal termination of Gaussian 03 at Fri Jun 12 18:08:39 2015.
