 Gaussian 03, Revision E.01,
 Gaussian 03:  EM64T-G03RevE.01 11-Sep-2007

 ----------------------------------------------------
 # b3lyp/6-31+G(d,p) int=ultrafine pop=(ReadRadii,MK)
 ----------------------------------------------------

 ---------------------------------------
 mol_17.26.59.pdbcc_plusQ.z58470.zip.xyz
 ---------------------------------------
 Symbolic Z-matrix:
 Charge =  1 Multiplicity = 1

                         Standard orientation:
 ---------------------------------------------------------------------
 Center     Atomic     Atomic              Coordinates (Angstroms)
 Number     Number      Type              X           Y           Z
 ---------------------------------------------------------------------
    1         20             0        0.890310    1.842953    0.365441
    2          8             0        2.531490    1.206903   -0.946969
    3          8             0        2.511481    0.001733   -0.094459
    4          8             0        2.537001   -1.205567   -0.943419
    5         20             0        0.892631   -1.842097    0.364741
    6         15             0       -1.282069   -0.001098    1.257611
    7          8             0       -1.295350    1.310762    0.075731
    8         20             0       -2.817879   -0.000929   -0.939389
    9          8             0       -1.293399   -1.311588    0.074111
 ---------------------------------------------------------------------

 SCF Done:  E(RB+HF-LYP) =  -2749.98590968     A.U. after    7 cycles

 The electronic state is 1-A.
 Alpha  occ. eigenvalues -- -145.57294-145.49803-145.49798 -77.21622 -19.31144
 Alpha  occ. eigenvalues --  -19.23877 -19.23845 -19.20777 -19.20605 -15.64073
 Alpha  occ. eigenvalues --  -15.56693 -15.56688 -12.77307 -12.77227 -12.77223
 Alpha  occ. eigenvalues --  -12.69942 -12.69936 -12.69913 -12.69907 -12.69747
 Alpha  occ. eigenvalues --  -12.69742  -6.67794  -4.84304  -4.84038  -4.83358
 Alpha  occ. eigenvalues --   -2.01009  -1.93934  -1.93914  -1.28671  -1.28440
 Alpha  occ. eigenvalues --   -1.28098  -1.22478  -1.21693  -1.21601  -1.21567
 Alpha  occ. eigenvalues --   -1.21544  -1.21125  -1.14760  -1.05056  -1.01464
 Alpha  occ. eigenvalues --   -0.96566  -0.81179  -0.64939  -0.51757  -0.51012
 Alpha  occ. eigenvalues --   -0.49782  -0.49109  -0.48264  -0.47159  -0.44425
 Alpha  occ. eigenvalues --   -0.39739  -0.39708  -0.34567  -0.33698  -0.32497
 Alpha  occ. eigenvalues --   -0.28764  -0.27610
 Alpha virt. eigenvalues --   -0.23540  -0.17629  -0.17544  -0.14664  -0.13967
 Alpha virt. eigenvalues --   -0.12500  -0.11110  -0.11055  -0.08982  -0.08895
 Alpha virt. eigenvalues --   -0.07818  -0.07234  -0.07013  -0.05987  -0.05500

 Mulliken atomic charges:
              1
     1  Ca   1.368557
     2  O   -0.528652
     3  O   -0.182783
     4  O   -0.530893
     5  Ca   1.368988
     6  P   -0.412510
     7  O   -0.804732
     8  Ca   1.527161
     9  O   -0.805135
 Sum of Mulliken charges=   1.00000

 Dipole moment (field-independent basis, Debye):
    X=   -13.5674    Y=     0.0128    Z=     0.0280  Tot=    13.5674
 Quadrupole moment (field-independent basis, Debye-Ang):
   XX=   -63.0679   YY=   -46.3841   ZZ=   -75.9409
   XY=     0.0293   XZ=    42.2478   YZ=     0.0183

 Normal termination of Gaussian 03 at Fri Jun 12 18:02:12 2015.
