 Gaussian 03, Revision E.01,
 Gaussian 03:  EM64T-G03RevE.01 11-Sep-2007

 ----------------------------------------------------
 # b3lyp/6-31+G(d,p) int=ultrafine pop=(ReadRadii,MK)
 ----------------------------------------------------

 --------------------------------------
 mol_17.25.41.pdbc_plusQ.z58346.zip.xyz
 --------------------------------------
 Symbolic Z-matrix:
 Charge =  1 Multiplicity = 1

                         Standard orientation:
 ---------------------------------------------------------------------
 Center     Atomic     Atomic              Coordinates (Angstroms)
 Number     Number      Type              X           Y           Z
 ---------------------------------------------------------------------
    1          8             0       -1.238465   -1.283676   -0.444160
    2          8             0        0.590011    0.002876   -1.656670
    3          8             0        0.608351   -0.003594    1.522090
    4          8             0        2.068071   -0.003140    1.103670
    5         20             0        1.053683   -1.671316   -0.141620
    6          8             0       -1.236824    1.286564   -0.438170
    7         15             0       -1.065599    0.003644   -1.530700
    8         20             0       -1.625949   -0.002444    1.390280
    9         20             0        1.055008    1.671414   -0.135340
 ---------------------------------------------------------------------

 SCF Done:  E(RB+HF-LYP) =  -2750.24881810     A.U. after    7 cycles

 The electronic state is 1-A.
 Alpha  occ. eigenvalues -- -145.52390-145.50182-145.50174 -77.25156 -19.25917
 Alpha  occ. eigenvalues --  -19.25463 -19.21789 -19.21789 -19.21337 -15.59149
 Alpha  occ. eigenvalues --  -15.56981 -15.56973 -12.72337 -12.72333 -12.72307
 Alpha  occ. eigenvalues --  -12.70189 -12.70183 -12.70181 -12.70174 -12.70101
 Alpha  occ. eigenvalues --  -12.70095  -6.70244  -4.86598  -4.86590  -4.86030
 Alpha  occ. eigenvalues --   -1.96327  -1.94231  -1.94165  -1.24350  -1.23882
 Alpha  occ. eigenvalues --   -1.23785  -1.22786  -1.22078  -1.21719  -1.21643
 Alpha  occ. eigenvalues --   -1.21523  -1.21225  -1.10038  -1.07330  -1.00852
 Alpha  occ. eigenvalues --   -1.00739  -0.89081  -0.63096  -0.51349  -0.51081
 Alpha  occ. eigenvalues --   -0.50980  -0.49237  -0.48454  -0.46051  -0.43794
 Alpha  occ. eigenvalues --   -0.43561  -0.38837  -0.38643  -0.38613  -0.35304
 Alpha  occ. eigenvalues --   -0.33995  -0.31701
 Alpha virt. eigenvalues --   -0.20303  -0.18389  -0.17632  -0.12784  -0.12605
 Alpha virt. eigenvalues --   -0.10904  -0.09919  -0.09096  -0.08254  -0.07950
 Alpha virt. eigenvalues --   -0.07351  -0.06563  -0.06018  -0.05818  -0.04927

 Mulliken atomic charges:
              1
     1  O   -1.043670
     2  O   -1.035034
     3  O   -0.725434
     4  O   -0.643425
     5  Ca   1.462436
     6  O   -1.043837
     7  P    1.083325
     8  Ca   1.483043
     9  Ca   1.462594
 Sum of Mulliken charges=   1.00000

 Dipole moment (field-independent basis, Debye):
    X=     0.9418    Y=    -0.0117    Z=     6.2054  Tot=     6.2765
 Quadrupole moment (field-independent basis, Debye-Ang):
   XX=   -63.7207   YY=   -44.2379   ZZ=   -80.5340
   XY=     0.0741   XZ=   -28.3267   YZ=     0.0746

 Normal termination of Gaussian 03 at Fri Jun 12 17:58:01 2015.
