 Gaussian 03, Revision E.01,
 Gaussian 03:  EM64T-G03RevE.01 11-Sep-2007

 ----------------------------------------------------
 # b3lyp/6-31+G(d,p) int=ultrafine pop=(ReadRadii,MK)
 ----------------------------------------------------

 ---------------------------------------
 mol_17.27.53.pdbcc_plusQ.z58519.zip.xyz
 ---------------------------------------
 Symbolic Z-matrix:
 Charge =  1 Multiplicity = 1

                         Standard orientation:
 ---------------------------------------------------------------------
 Center     Atomic     Atomic              Coordinates (Angstroms)
 Number     Number      Type              X           Y           Z
 ---------------------------------------------------------------------
    1          8             0       -2.067900    0.003189    1.103479
    2          8             0       -0.608210    0.002037    1.522299
    3          8             0        1.238633    1.283786   -0.442301
    4         20             0       -1.052239    1.672884   -0.139831
    5         15             0        1.064990   -0.002585   -1.530871
    6         20             0        1.626260    0.000018    1.389679
    7          8             0        1.236036   -1.286694   -0.439681
    8         20             0       -1.056142   -1.671446   -0.136631
    9          8             0       -0.590110   -0.001113   -1.656451
 ---------------------------------------------------------------------

 SCF Done:  E(RB+HF-LYP) =  -2750.24881764     A.U. after    7 cycles

 The electronic state is 1-A.
 Alpha  occ. eigenvalues -- -145.52378-145.50189-145.50176 -77.25156 -19.25907
 Alpha  occ. eigenvalues --  -19.25458 -19.21787 -19.21785 -19.21336 -15.59137
 Alpha  occ. eigenvalues --  -15.56987 -15.56975 -12.72325 -12.72321 -12.72295
 Alpha  occ. eigenvalues --  -12.70195 -12.70187 -12.70184 -12.70176 -12.70107
 Alpha  occ. eigenvalues --  -12.70096  -6.70244  -4.86598  -4.86590  -4.86030
 Alpha  occ. eigenvalues --   -1.96316  -1.94234  -1.94167  -1.24341  -1.23872
 Alpha  occ. eigenvalues --   -1.23775  -1.22782  -1.22079  -1.21721  -1.21644
 Alpha  occ. eigenvalues --   -1.21526  -1.21227  -1.10028  -1.07328  -1.00855
 Alpha  occ. eigenvalues --   -1.00731  -0.89071  -0.63095  -0.51337  -0.51079
 Alpha  occ. eigenvalues --   -0.50979  -0.49231  -0.48443  -0.46041  -0.43792
 Alpha  occ. eigenvalues --   -0.43559  -0.38836  -0.38643  -0.38611  -0.35295
 Alpha  occ. eigenvalues --   -0.33983  -0.31701
 Alpha virt. eigenvalues --   -0.20297  -0.18390  -0.17634  -0.12781  -0.12603
 Alpha virt. eigenvalues --   -0.10900  -0.09919  -0.09097  -0.08255  -0.07948
 Alpha virt. eigenvalues --   -0.07349  -0.06562  -0.06019  -0.05817  -0.04927

 Mulliken atomic charges:
              1
     1  O   -0.643471
     2  O   -0.725514
     3  O   -1.043940
     4  Ca   1.462631
     5  P    1.083091
     6  Ca   1.482915
     7  O   -1.043853
     8  Ca   1.462949
     9  O   -1.034808
 Sum of Mulliken charges=   1.00000

 Dipole moment (field-independent basis, Debye):
    X=    -0.9419    Y=     0.0024    Z=     6.1988  Tot=     6.2700
 Quadrupole moment (field-independent basis, Debye-Ang):
   XX=   -63.7193   YY=   -44.2014   ZZ=   -80.5426
   XY=     0.0580   XZ=    28.3210   YZ=    -0.0581

 Normal termination of Gaussian 03 at Fri Jun 12 18:08:00 2015.
