 Gaussian 03, Revision E.01,
 Gaussian 03:  EM64T-G03RevE.01 11-Sep-2007

 ----------------------------------------------------
 # b3lyp/6-31+G(d,p) int=ultrafine pop=(ReadRadii,MK)
 ----------------------------------------------------

 -----------------------------------------
 mol_17.27.59.pdbcccc_plusQ.z58525.zip.xyz
 -----------------------------------------
 Symbolic Z-matrix:
 Charge =  1 Multiplicity = 1

                         Standard orientation:
 ---------------------------------------------------------------------
 Center     Atomic     Atomic              Coordinates (Angstroms)
 Number     Number      Type              X           Y           Z
 ---------------------------------------------------------------------
    1          8             0       -4.071595    1.674793    0.000000
    2          8             0       -4.481068    0.120131    0.000000
    3         20             0       -2.228548    0.091951    0.000000
    4          8             0       -0.294813   -1.073330    0.000000
    5          8             0        0.000000    0.469831    0.000000
    6         15             0       -5.189370    2.782638    0.000000
    7         20             0        6.108559   -1.510992    0.000000
    8         20             0        1.922525   -0.699420    0.000000
    9          8             0        4.071207   -1.112721    0.000000
 ---------------------------------------------------------------------

 SCF Done:  E(RB+HF-LYP) =  -2749.92402962     A.U. after   28 cycles

 The electronic state is 1-A'.
 Alpha  occ. eigenvalues -- -145.56749-145.43949-145.43842 -77.21134 -19.32980
 Alpha  occ. eigenvalues --  -19.21139 -19.21127 -19.20403 -19.16237 -15.63548
 Alpha  occ. eigenvalues --  -15.50939 -15.50758 -12.76768 -12.76768 -12.76623
 Alpha  occ. eigenvalues --  -12.64222 -12.64167 -12.64044 -12.63976 -12.63923
 Alpha  occ. eigenvalues --  -12.63773  -6.67543  -4.84180  -4.83820  -4.82859
 Alpha  occ. eigenvalues --   -2.00469  -1.88424  -1.88151  -1.28016  -1.28015
 Alpha  occ. eigenvalues --   -1.27110  -1.17415  -1.16549  -1.16277  -1.16216
 Alpha  occ. eigenvalues --   -1.16081  -1.15631  -1.12968  -1.03333  -0.91579
 Alpha  occ. eigenvalues --   -0.90257  -0.84880  -0.64899  -0.50924  -0.49991
 Alpha  occ. eigenvalues --   -0.48196  -0.44548  -0.43712  -0.41696  -0.36734
 Alpha  occ. eigenvalues --   -0.34463  -0.34425  -0.33519  -0.32917  -0.32059
 Alpha  occ. eigenvalues --   -0.29211  -0.25903
 Alpha virt. eigenvalues --   -0.25025  -0.19629  -0.15163  -0.15148  -0.14612
 Alpha virt. eigenvalues --   -0.12234  -0.11913  -0.10711  -0.09777  -0.08345
 Alpha virt. eigenvalues --   -0.08084  -0.06085  -0.06045  -0.05604  -0.05352

 Mulliken atomic charges:
              1
     1  O   -0.350682
     2  O   -0.496861
     3  Ca   1.344773
     4  O   -0.673745
     5  O   -0.670205
     6  P    0.293667
     7  Ca   1.419318
     8  Ca   1.320549
     9  O   -1.186813
 Sum of Mulliken charges=   1.00000

 Dipole moment (field-independent basis, Debye):
    X=    26.0359    Y=    -4.9983    Z=     0.0000  Tot=    26.5113
 Quadrupole moment (field-independent basis, Debye-Ang):
   XX=    87.4113   YY=   -67.4978   ZZ=   -74.3033
   XY=   -52.8582   XZ=     0.0000   YZ=     0.0000

 Normal termination of Gaussian 03 at Fri Jun 12 18:09:20 2015.
