 Gaussian 03, Revision E.01,
 Gaussian 03:  EM64T-G03RevE.01 11-Sep-2007

 ----------------------------------------------------
 # b3lyp/6-31+G(d,p) int=ultrafine pop=(ReadRadii,MK)
 ----------------------------------------------------

 -----------------------------------------
 mol_17.28.44.pdbcccc_plusQ.z58568.zip.xyz
 -----------------------------------------
 Symbolic Z-matrix:
 Charge =  1 Multiplicity = 1

                         Standard orientation:
 ---------------------------------------------------------------------
 Center     Atomic     Atomic              Coordinates (Angstroms)
 Number     Number      Type              X           Y           Z
 ---------------------------------------------------------------------
    1          8             0        2.532593    0.340598    0.980749
    2          8             0        0.568174    1.290030   -0.247511
    3         15             0        1.016263    0.640920    1.228409
    4         20             0       -1.650286    1.885163   -0.273191
    5         20             0        2.151132   -0.230102   -1.163341
    6          8             0        0.296711   -1.001180    0.970219
    7          8             0        0.534120   -1.671260   -0.393691
    8         20             0       -1.737200   -1.749847    0.122089
    9          8             0       -2.746208    0.077054   -0.326921
 ---------------------------------------------------------------------

 SCF Done:  E(RB+HF-LYP) =  -2750.16692585     A.U. after    9 cycles

 The electronic state is 1-A.
 Alpha  occ. eigenvalues -- -145.52694-145.49232-145.47395 -77.26191 -19.29373
 Alpha  occ. eigenvalues --  -19.26769 -19.23289 -19.20686 -19.12340 -15.59500
 Alpha  occ. eigenvalues --  -15.56126 -15.54294 -12.72695 -12.72690 -12.72641
 Alpha  occ. eigenvalues --  -12.69381 -12.69309 -12.69184 -12.67526 -12.67497
 Alpha  occ. eigenvalues --  -12.67360  -6.71453  -4.87898  -4.87729  -4.87244
 Alpha  occ. eigenvalues --   -1.96609  -1.93372  -1.91590  -1.24639  -1.23981
 Alpha  occ. eigenvalues --   -1.23903  -1.21269  -1.20945  -1.20300  -1.20005
 Alpha  occ. eigenvalues --   -1.19356  -1.18642  -1.12933  -1.06886  -1.01982
 Alpha  occ. eigenvalues --   -0.93281  -0.86557  -0.64624  -0.55149  -0.52555
 Alpha  occ. eigenvalues --   -0.51121  -0.48251  -0.47847  -0.43066  -0.40582
 Alpha  occ. eigenvalues --   -0.39647  -0.37838  -0.35835  -0.33999  -0.32601
 Alpha  occ. eigenvalues --   -0.30760  -0.30655
 Alpha virt. eigenvalues --   -0.20594  -0.18571  -0.16507  -0.14574  -0.12514
 Alpha virt. eigenvalues --   -0.10784  -0.10584  -0.08948  -0.08730  -0.08212
 Alpha virt. eigenvalues --   -0.07324  -0.07082  -0.06620  -0.05807  -0.05409

 Mulliken atomic charges:
              1
     1  O   -0.891539
     2  O   -0.999587
     3  P    0.958575
     4  Ca   1.389855
     5  Ca   1.445378
     6  O   -0.464246
     7  O   -0.688548
     8  Ca   1.436922
     9  O   -1.186810
 Sum of Mulliken charges=   1.00000

 Dipole moment (field-independent basis, Debye):
    X=    -0.3769    Y=     0.4507    Z=    -8.0695  Tot=     8.0909
 Quadrupole moment (field-independent basis, Debye-Ang):
   XX=   -66.3050   YY=   -40.7366   ZZ=   -68.4421
   XY=    -3.5116   XZ=   -27.7483   YZ=    -2.6100

 Normal termination of Gaussian 03 at Fri Jun 12 18:10:23 2015.
