 Gaussian 03, Revision E.01,
 Gaussian 03:  EM64T-G03RevE.01 11-Sep-2007

 ----------------------------------------------------
 # b3lyp/6-31+G(d,p) int=ultrafine pop=(ReadRadii,MK)
 ----------------------------------------------------

 ---------------------------------------
 mol_17.29.13.pdbcc_plusQ.z58593.zip.xyz
 ---------------------------------------
 Symbolic Z-matrix:
 Charge =  1 Multiplicity = 1

                         Standard orientation:
 ---------------------------------------------------------------------
 Center     Atomic     Atomic              Coordinates (Angstroms)
 Number     Number      Type              X           Y           Z
 ---------------------------------------------------------------------
    1          8             0        3.410900   -0.653189   -0.001982
    2          8             0       -0.822170   -0.880108    0.778018
    3         20             0        1.221820   -1.492458    0.001218
    4         15             0        3.170521    0.867031   -0.001202
    5          8             0        1.613091    1.040211    0.001928
    6          8             0       -0.821290   -0.879798   -0.777512
    7         20             0       -3.075930   -0.693927   -0.001032
    8          8             0       -2.874839    1.416033   -0.000562
    9         20             0       -0.726059    1.518852    0.000758
 ---------------------------------------------------------------------

 SCF Done:  E(RB+HF-LYP) =  -2750.19922761     A.U. after    8 cycles

 The electronic state is 1-A.
 Alpha  occ. eigenvalues -- -145.53300-145.48101-145.46500 -77.31648 -19.29958
 Alpha  occ. eigenvalues --  -19.29137 -19.27655 -19.27650 -19.10311 -15.60145
 Alpha  occ. eigenvalues --  -15.54938 -15.53359 -12.73381 -12.73376 -12.73211
 Alpha  occ. eigenvalues --  -12.68157 -12.68121 -12.68042 -12.66613 -12.66577
 Alpha  occ. eigenvalues --  -12.66408  -6.77272  -4.93704  -4.93472  -4.93054
 Alpha  occ. eigenvalues --   -1.97330  -1.92136  -1.90669  -1.25313  -1.25143
 Alpha  occ. eigenvalues --   -1.25003  -1.20357  -1.19790  -1.19239  -1.18530
 Alpha  occ. eigenvalues --   -1.18452  -1.17871  -1.15552  -1.10913  -1.09763
 Alpha  occ. eigenvalues --   -0.91288  -0.84520  -0.68931  -0.57897  -0.55272
 Alpha  occ. eigenvalues --   -0.54483  -0.51223  -0.50447  -0.49464  -0.46901
 Alpha  occ. eigenvalues --   -0.45453  -0.42701  -0.38845  -0.36713  -0.30147
 Alpha  occ. eigenvalues --   -0.28563  -0.28510
 Alpha virt. eigenvalues --   -0.21598  -0.19564  -0.17910  -0.15029  -0.15008
 Alpha virt. eigenvalues --   -0.11255  -0.10530  -0.09853  -0.09287  -0.08793
 Alpha virt. eigenvalues --   -0.08675  -0.08136  -0.07318  -0.06844  -0.06403

 Mulliken atomic charges:
              1
     1  O   -0.647404
     2  O   -0.694290
     3  Ca   1.503224
     4  P    0.680231
     5  O   -0.742723
     6  O   -0.694374
     7  Ca   1.362970
     8  O   -1.123837
     9  Ca   1.356204
 Sum of Mulliken charges=   1.00000

 Dipole moment (field-independent basis, Debye):
    X=     0.3539    Y=    -7.6398    Z=     0.0063  Tot=     7.6480
 Quadrupole moment (field-independent basis, Debye-Ang):
   XX=   -63.4133   YY=   -57.0610   ZZ=   -77.2560
   XY=    23.1650   XZ=     0.0297   YZ=    -0.0053

 Normal termination of Gaussian 03 at Fri Jun 12 18:11:30 2015.
