 Gaussian 03, Revision E.01,
 Gaussian 03:  EM64T-G03RevE.01 11-Sep-2007

 ----------------------------------------------------
 # b3lyp/6-31+G(d,p) int=ultrafine pop=(ReadRadii,MK)
 ----------------------------------------------------

 -------------------------------------
 mol_17.27.23.pdb_plusQ.z58491.zip.xyz
 -------------------------------------
 Symbolic Z-matrix:
 Charge =  1 Multiplicity = 1

                         Standard orientation:
 ---------------------------------------------------------------------
 Center     Atomic     Atomic              Coordinates (Angstroms)
 Number     Number      Type              X           Y           Z
 ---------------------------------------------------------------------
    1         20             0        3.242960    0.345383    0.692170
    2          8             0        2.215661   -1.471388    0.027530
    3         15             0        1.138591   -0.789378   -0.942520
    4          8             0        1.427770    0.891122   -0.494200
    5         20             0       -0.808330    1.499981   -0.317510
    6          8             0       -2.941800    0.746570   -0.413990
    7          8             0       -2.465920    0.835460    1.078060
    8         20             0       -2.448719   -1.282080    0.367880
    9          8             0       -0.335349   -0.929889   -0.286520
 ---------------------------------------------------------------------

 SCF Done:  E(RB+HF-LYP) =  -2750.19795006     A.U. after    7 cycles

 The electronic state is 1-A.
 Alpha  occ. eigenvalues -- -145.54443-145.49718-145.46326 -77.24443 -19.21802
 Alpha  occ. eigenvalues --  -19.21259 -19.20893 -19.20745 -19.20338 -15.61303
 Alpha  occ. eigenvalues --  -15.56516 -15.53233 -12.74534 -12.74441 -12.74432
 Alpha  occ. eigenvalues --  -12.69727 -12.69701 -12.69643 -12.66469 -12.66457
 Alpha  occ. eigenvalues --  -12.66286  -6.69519  -4.85927  -4.85845  -4.85331
 Alpha  occ. eigenvalues --   -1.98418  -1.93699  -1.90585  -1.26083  -1.25909
 Alpha  occ. eigenvalues --   -1.25557  -1.21827  -1.21216  -1.21106  -1.18482
 Alpha  occ. eigenvalues --   -1.18337  -1.18047  -1.06948  -1.03523  -1.01164
 Alpha  occ. eigenvalues --   -0.99566  -0.84629  -0.62348  -0.51024  -0.50131
 Alpha  occ. eigenvalues --   -0.47440  -0.44517  -0.44224  -0.42683  -0.41957
 Alpha  occ. eigenvalues --   -0.40824  -0.38691  -0.37819  -0.37546  -0.31572
 Alpha  occ. eigenvalues --   -0.30330  -0.29522
 Alpha virt. eigenvalues --   -0.22208  -0.18029  -0.15330  -0.13696  -0.12619
 Alpha virt. eigenvalues --   -0.11333  -0.10042  -0.08828  -0.08449  -0.07262
 Alpha virt. eigenvalues --   -0.07135  -0.06046  -0.05721  -0.05628  -0.05087

 Mulliken atomic charges:
              1
     1  Ca   1.411207
     2  O   -0.864315
     3  P    0.903287
     4  O   -1.061277
     5  Ca   1.452531
     6  O   -0.650885
     7  O   -0.657845
     8  Ca   1.478919
     9  O   -1.011621
 Sum of Mulliken charges=   1.00000

 Dipole moment (field-independent basis, Debye):
    X=     6.6364    Y=     1.0620    Z=     4.9257  Tot=     8.3327
 Quadrupole moment (field-independent basis, Debye-Ang):
   XX=   -22.4729   YY=   -60.2905   ZZ=   -77.3876
   XY=    40.7312   XZ=    17.2633   YZ=    -6.1304

 Normal termination of Gaussian 03 at Fri Jun 12 18:06:29 2015.
