 Gaussian 03, Revision E.01,
 Gaussian 03:  EM64T-G03RevE.01 11-Sep-2007

 ----------------------------------------------------
 # b3lyp/6-31+G(d,p) int=ultrafine pop=(ReadRadii,MK)
 ----------------------------------------------------

 ---------------------------------------
 mol_17.24.17.pdbcc_plusQ.z58272.zip.xyz
 ---------------------------------------
 Symbolic Z-matrix:
 Charge =  1 Multiplicity = 1

                         Standard orientation:
 ---------------------------------------------------------------------
 Center     Atomic     Atomic              Coordinates (Angstroms)
 Number     Number      Type              X           Y           Z
 ---------------------------------------------------------------------
    1          8             0       -2.714870   -1.089513   -0.780752
    2          8             0       -2.704230   -1.091623    0.788958
    3         20             0       -0.594299   -1.308061   -0.010422
    4          8             0       -0.563682    1.106789   -0.007242
    5          8             0        3.222579    0.521973    0.006548
    6         15             0        3.192830   -1.029947    0.007588
    7          8             0        1.728731   -1.504619   -0.001302
    8         20             0       -2.817432    0.990957    0.007348
    9         20             0        1.429697    1.912361   -0.005102
 ---------------------------------------------------------------------

 SCF Done:  E(RB+HF-LYP) =  -2750.20952286     A.U. after    8 cycles

 The electronic state is 1-A.
 Alpha  occ. eigenvalues -- -145.53409-145.48026-145.44953 -77.30002 -19.27998
 Alpha  occ. eigenvalues --  -19.27384 -19.19938 -19.19932 -19.17925 -15.60311
 Alpha  occ. eigenvalues --  -15.54894 -15.51833 -12.73567 -12.73519 -12.73348
 Alpha  occ. eigenvalues --  -12.68102 -12.68075 -12.68003 -12.65076 -12.65038
 Alpha  occ. eigenvalues --  -12.64908  -6.75517  -4.91961  -4.91734  -4.91298
 Alpha  occ. eigenvalues --   -1.97532  -1.92201  -1.89218  -1.25388  -1.25265
 Alpha  occ. eigenvalues --   -1.24400  -1.20515  -1.19799  -1.19401  -1.17197
 Alpha  occ. eigenvalues --   -1.17063  -1.16744  -1.13736  -1.08232  -1.02460
 Alpha  occ. eigenvalues --   -0.92490  -0.83762  -0.67334  -0.56774  -0.52796
 Alpha  occ. eigenvalues --   -0.52553  -0.45452  -0.43570  -0.43416  -0.41986
 Alpha  occ. eigenvalues --   -0.41135  -0.40715  -0.38015  -0.37344  -0.36443
 Alpha  occ. eigenvalues --   -0.30536  -0.28921
 Alpha virt. eigenvalues --   -0.21358  -0.19731  -0.18076  -0.13511  -0.13450
 Alpha virt. eigenvalues --   -0.11721  -0.10910  -0.10453  -0.08637  -0.08283
 Alpha virt. eigenvalues --   -0.07171  -0.06864  -0.06447  -0.06185  -0.05660

 Mulliken atomic charges:
              1
     1  O   -0.651279
     2  O   -0.651506
     3  Ca   1.407667
     4  O   -1.349301
     5  O   -0.717879
     6  P    0.666542
     7  O   -0.676434
     8  Ca   1.443372
     9  Ca   1.528817
 Sum of Mulliken charges=   1.00000

 Dipole moment (field-independent basis, Debye):
    X=     1.2481    Y=    12.2829    Z=    -0.0368  Tot=    12.3462
 Quadrupole moment (field-independent basis, Debye-Ang):
   XX=   -63.2560   YY=   -46.0656   ZZ=   -77.2245
   XY=   -15.8166   XZ=    -0.1724   YZ=     0.1512

 Normal termination of Gaussian 03 at Fri Jun 12 17:54:54 2015.
