 Gaussian 03, Revision E.01,
 Gaussian 03:  EM64T-G03RevE.01 11-Sep-2007

 ----------------------------------------------------
 # b3lyp/6-31+G(d,p) int=ultrafine pop=(ReadRadii,MK)
 ----------------------------------------------------

 ----------------------------------------
 mol_17.25.44.pdbccc_plusQ.z58349.zip.xyz
 ----------------------------------------
 Symbolic Z-matrix:
 Charge =  1 Multiplicity = 1

                         Standard orientation:
 ---------------------------------------------------------------------
 Center     Atomic     Atomic              Coordinates (Angstroms)
 Number     Number      Type              X           Y           Z
 ---------------------------------------------------------------------
    1          8             0        1.236883    1.286498   -0.437969
    2          8             0        1.237337   -1.283672   -0.445689
    3         15             0        1.063990    0.004737   -1.531409
    4         20             0       -1.054301   -1.671295   -0.142269
    5         20             0        1.627570   -0.003830    1.389031
    6          8             0       -0.591620    0.004907   -1.656019
    7          8             0       -2.067480   -0.002671    1.105641
    8          8             0       -0.606800   -0.006243    1.520851
    9         20             0       -1.054589    1.672045   -0.132929
 ---------------------------------------------------------------------

 SCF Done:  E(RB+HF-LYP) =  -2750.24881772     A.U. after    7 cycles

 The electronic state is 1-A.
 Alpha  occ. eigenvalues -- -145.52389-145.50177-145.50169 -77.25154 -19.25910
 Alpha  occ. eigenvalues --  -19.25460 -19.21784 -19.21784 -19.21333 -15.59147
 Alpha  occ. eigenvalues --  -15.56976 -15.56968 -12.72335 -12.72331 -12.72305
 Alpha  occ. eigenvalues --  -12.70184 -12.70177 -12.70176 -12.70169 -12.70096
 Alpha  occ. eigenvalues --  -12.70090  -6.70242  -4.86596  -4.86588  -4.86027
 Alpha  occ. eigenvalues --   -1.96325  -1.94226  -1.94160  -1.24348  -1.23880
 Alpha  occ. eigenvalues --   -1.23783  -1.22780  -1.22073  -1.21713  -1.21638
 Alpha  occ. eigenvalues --   -1.21518  -1.21220  -1.10031  -1.07324  -1.00850
 Alpha  occ. eigenvalues --   -1.00732  -0.89076  -0.63092  -0.51344  -0.51077
 Alpha  occ. eigenvalues --   -0.50976  -0.49233  -0.48450  -0.46043  -0.43790
 Alpha  occ. eigenvalues --   -0.43556  -0.38833  -0.38640  -0.38610  -0.35299
 Alpha  occ. eigenvalues --   -0.33989  -0.31697
 Alpha virt. eigenvalues --   -0.20303  -0.18387  -0.17630  -0.12784  -0.12601
 Alpha virt. eigenvalues --   -0.10906  -0.09917  -0.09096  -0.08254  -0.07950
 Alpha virt. eigenvalues --   -0.07348  -0.06562  -0.06018  -0.05818  -0.04925

 Mulliken atomic charges:
              1
     1  O   -1.043728
     2  O   -1.043653
     3  P    1.083134
     4  Ca   1.462674
     5  Ca   1.483168
     6  O   -1.034862
     7  O   -0.643922
     8  O   -0.725397
     9  Ca   1.462585
 Sum of Mulliken charges=   1.00000

 Dipole moment (field-independent basis, Debye):
    X=    -0.9335    Y=    -0.0131    Z=     6.2084  Tot=     6.2782
 Quadrupole moment (field-independent basis, Debye-Ang):
   XX=   -63.6689   YY=   -44.2247   ZZ=   -80.5639
   XY=    -0.0814   XZ=    28.3145   YZ=     0.1103

 Normal termination of Gaussian 03 at Fri Jun 12 17:58:08 2015.
