 Gaussian 03, Revision E.01,
 Gaussian 03:  EM64T-G03RevE.01 11-Sep-2007

 ----------------------------------------------------
 # b3lyp/6-31+G(d,p) int=ultrafine pop=(ReadRadii,MK)
 ----------------------------------------------------

 -------------------------------------
 mol_17.28.2.pdbc_plusQ.z58553.zip.xyz
 -------------------------------------
 Symbolic Z-matrix:
 Charge =  1 Multiplicity = 1

                         Standard orientation:
 ---------------------------------------------------------------------
 Center     Atomic     Atomic              Coordinates (Angstroms)
 Number     Number      Type              X           Y           Z
 ---------------------------------------------------------------------
    1          8             0        1.725937   -1.491673    0.000141
    2          8             0       -0.564749    1.105990   -0.000159
    3         20             0       -2.818279    0.993563    0.000121
    4          8             0       -2.712802   -1.088357    0.784981
    5          8             0       -2.713012   -1.088327   -0.784849
    6         20             0       -0.597972   -1.308330   -0.000209
    7         15             0        3.194408   -1.029135    0.000151
    8         20             0        1.432312    1.902658   -0.000009
    9          8             0        3.234960    0.522265   -0.000159
 ---------------------------------------------------------------------

 SCF Done:  E(RB+HF-LYP) =  -2750.20951967     A.U. after    8 cycles

 The electronic state is 1-A.
 Alpha  occ. eigenvalues -- -145.53396-145.48023-145.44978 -77.30022 -19.27965
 Alpha  occ. eigenvalues --  -19.27481 -19.19914 -19.19909 -19.17881 -15.60298
 Alpha  occ. eigenvalues --  -15.54889 -15.51856 -12.73554 -12.73507 -12.73334
 Alpha  occ. eigenvalues --  -12.68098 -12.68071 -12.67999 -12.65099 -12.65062
 Alpha  occ. eigenvalues --  -12.64932  -6.75540  -4.91984  -4.91757  -4.91321
 Alpha  occ. eigenvalues --   -1.97519  -1.92193  -1.89239  -1.25377  -1.25257
 Alpha  occ. eigenvalues --   -1.24383  -1.20508  -1.19791  -1.19393  -1.17218
 Alpha  occ. eigenvalues --   -1.17082  -1.16763  -1.13768  -1.08257  -1.02445
 Alpha  occ. eigenvalues --   -0.92462  -0.83748  -0.67357  -0.56792  -0.52839
 Alpha  occ. eigenvalues --   -0.52586  -0.45477  -0.43600  -0.43400  -0.41978
 Alpha  occ. eigenvalues --   -0.41118  -0.40749  -0.37991  -0.37314  -0.36420
 Alpha  occ. eigenvalues --   -0.30523  -0.28910
 Alpha virt. eigenvalues --   -0.21330  -0.19764  -0.18064  -0.13533  -0.13442
 Alpha virt. eigenvalues --   -0.11692  -0.10903  -0.10463  -0.08649  -0.08278
 Alpha virt. eigenvalues --   -0.07168  -0.06873  -0.06457  -0.06203  -0.05657

 Mulliken atomic charges:
              1
     1  O   -0.677413
     2  O   -1.348051
     3  Ca   1.443445
     4  O   -0.651203
     5  O   -0.651199
     6  Ca   1.406445
     7  P    0.665927
     8  Ca   1.527524
     9  O   -0.715475
 Sum of Mulliken charges=   1.00000

 Dipole moment (field-independent basis, Debye):
    X=     1.2579    Y=    12.1947    Z=     0.0002  Tot=    12.2594
 Quadrupole moment (field-independent basis, Debye-Ang):
   XX=   -63.3352   YY=   -46.1890   ZZ=   -77.2339
   XY=   -15.9541   XZ=    -0.0003   YZ=     0.0059

 Normal termination of Gaussian 03 at Fri Jun 12 18:09:32 2015.
