 Gaussian 03, Revision E.01,
 Gaussian 03:  EM64T-G03RevE.01 11-Sep-2007

 ----------------------------------------------------
 # b3lyp/6-31+G(d,p) int=ultrafine pop=(ReadRadii,MK)
 ----------------------------------------------------

 ---------------------------------------
 mol_17.28.12.pdbcc_plusQ.z58534.zip.xyz
 ---------------------------------------
 Symbolic Z-matrix:
 Charge =  1 Multiplicity = 1

                         Standard orientation:
 ---------------------------------------------------------------------
 Center     Atomic     Atomic              Coordinates (Angstroms)
 Number     Number      Type              X           Y           Z
 ---------------------------------------------------------------------
    1          8             0        0.589468    0.000098   -1.656999
    2         15             0       -1.065442    0.000034   -1.530669
    3         20             0       -1.626092   -0.000104    1.390271
    4          8             0       -1.237498    1.284964   -0.440759
    5         20             0        1.054134    1.671327   -0.138379
    6          8             0        2.068708    0.000053    1.103801
    7          8             0        0.608658   -0.000142    1.521441
    8         20             0        1.054272   -1.671243   -0.138529
    9          8             0       -1.237416   -1.284986   -0.440889
 ---------------------------------------------------------------------

 SCF Done:  E(RB+HF-LYP) =  -2750.24881735     A.U. after    7 cycles

 The electronic state is 1-A.
 Alpha  occ. eigenvalues -- -145.52390-145.50181-145.50175 -77.25154 -19.25917
 Alpha  occ. eigenvalues --  -19.25467 -19.21787 -19.21786 -19.21339 -15.59148
 Alpha  occ. eigenvalues --  -15.56979 -15.56975 -12.72336 -12.72332 -12.72306
 Alpha  occ. eigenvalues --  -12.70186 -12.70186 -12.70178 -12.70178 -12.70098
 Alpha  occ. eigenvalues --  -12.70098  -6.70243  -4.86597  -4.86589  -4.86028
 Alpha  occ. eigenvalues --   -1.96326  -1.94231  -1.94165  -1.24350  -1.23881
 Alpha  occ. eigenvalues --   -1.23785  -1.22786  -1.22079  -1.21719  -1.21643
 Alpha  occ. eigenvalues --   -1.21524  -1.21225  -1.10035  -1.07337  -1.00862
 Alpha  occ. eigenvalues --   -1.00736  -0.89083  -0.63096  -0.51348  -0.51085
 Alpha  occ. eigenvalues --   -0.50985  -0.49239  -0.48453  -0.46052  -0.43798
 Alpha  occ. eigenvalues --   -0.43563  -0.38836  -0.38649  -0.38614  -0.35304
 Alpha  occ. eigenvalues --   -0.33997  -0.31699
 Alpha virt. eigenvalues --   -0.20303  -0.18389  -0.17631  -0.12784  -0.12605
 Alpha virt. eigenvalues --   -0.10904  -0.09920  -0.09096  -0.08254  -0.07952
 Alpha virt. eigenvalues --   -0.07350  -0.06563  -0.06018  -0.05819  -0.04925

 Mulliken atomic charges:
              1
     1  O   -1.034767
     2  P    1.083441
     3  Ca   1.483104
     4  O   -1.043877
     5  Ca   1.462483
     6  O   -0.643644
     7  O   -0.725376
     8  Ca   1.462495
     9  O   -1.043860
 Sum of Mulliken charges=   1.00000

 Dipole moment (field-independent basis, Debye):
    X=     0.9403    Y=    -0.0002    Z=     6.2041  Tot=     6.2749
 Quadrupole moment (field-independent basis, Debye-Ang):
   XX=   -63.7294   YY=   -44.2417   ZZ=   -80.5254
   XY=     0.0003   XZ=   -28.3338   YZ=     0.0013

 Normal termination of Gaussian 03 at Fri Jun 12 18:08:19 2015.
