 Gaussian 03, Revision E.01,
 Gaussian 03:  EM64T-G03RevE.01 11-Sep-2007

 ----------------------------------------------------
 # b3lyp/6-31+G(d,p) int=ultrafine pop=(ReadRadii,MK)
 ----------------------------------------------------

 ----------------------------------------
 mol_17.29.15.pdbccc_plusQ.z58595.zip.xyz
 ----------------------------------------
 Symbolic Z-matrix:
 Charge =  1 Multiplicity = 1

                         Standard orientation:
 ---------------------------------------------------------------------
 Center     Atomic     Atomic              Coordinates (Angstroms)
 Number     Number      Type              X           Y           Z
 ---------------------------------------------------------------------
    1          8             0       -2.475080    1.037401   -0.000889
    2          8             0        1.200429    0.907779    0.006031
    3         20             0       -0.529860    2.186490    0.004361
    4         15             0       -2.785711   -0.460029   -0.003829
    5          8             0       -4.159291   -0.982998   -0.011209
    6          8             0       -1.534462   -1.314029    0.001631
    7         20             0        0.799878   -1.472560    0.011121
    8          8             0        2.957568   -1.639621   -0.005789
    9         20             0        3.423599    0.427678   -0.008519
 ---------------------------------------------------------------------

 SCF Done:  E(RB+HF-LYP) =  -2750.23671689     A.U. after   11 cycles

 The electronic state is 1-A.
 Alpha  occ. eigenvalues -- -145.54679-145.47875-145.45485 -77.35458 -19.29881
 Alpha  occ. eigenvalues --  -19.29315 -19.27356 -19.18787 -19.11034 -15.61546
 Alpha  occ. eigenvalues --  -15.54774 -15.52423 -12.74800 -12.74741 -12.74606
 Alpha  occ. eigenvalues --  -12.68013 -12.67930 -12.67855 -12.65697 -12.65608
 Alpha  occ. eigenvalues --  -12.65462  -6.80694  -4.97306  -4.96839  -4.96745
 Alpha  occ. eigenvalues --   -1.98708  -1.92065  -1.89841  -1.26523  -1.26430
 Alpha  occ. eigenvalues --   -1.25599  -1.19919  -1.19609  -1.19061  -1.18686
 Alpha  occ. eigenvalues --   -1.17915  -1.17303  -1.16571  -1.10907  -1.10194
 Alpha  occ. eigenvalues --   -0.93296  -0.85093  -0.67386  -0.59522  -0.56372
 Alpha  occ. eigenvalues --   -0.55672  -0.50023  -0.47672  -0.47378  -0.45199
 Alpha  occ. eigenvalues --   -0.42284  -0.39522  -0.38502  -0.37238  -0.30633
 Alpha  occ. eigenvalues --   -0.29208  -0.28903
 Alpha virt. eigenvalues --   -0.22706  -0.18987  -0.17387  -0.14717  -0.14077
 Alpha virt. eigenvalues --   -0.13578  -0.12008  -0.11177  -0.11021  -0.09241
 Alpha virt. eigenvalues --   -0.08409  -0.07802  -0.07575  -0.06030  -0.05770

 Mulliken atomic charges:
              1
     1  O   -0.846931
     2  O   -1.348654
     3  Ca   1.511303
     4  P    1.542908
     5  O   -0.614788
     6  O   -0.827904
     7  Ca   1.360856
     8  O   -1.103359
     9  Ca   1.326569
 Sum of Mulliken charges=   1.00000

 Dipole moment (field-independent basis, Debye):
    X=     6.2848    Y=    13.0912    Z=     0.0513  Tot=    14.5218
 Quadrupole moment (field-independent basis, Debye-Ang):
   XX=   -74.0132   YY=   -51.9279   ZZ=   -72.9886
   XY=    15.9611   XZ=    -0.1698   YZ=    -0.1863

 Normal termination of Gaussian 03 at Fri Jun 12 18:11:57 2015.
