 Gaussian 03, Revision E.01,
 Gaussian 03:  EM64T-G03RevE.01 11-Sep-2007

 ----------------------------------------------------
 # b3lyp/6-31+G(d,p) int=ultrafine pop=(ReadRadii,MK)
 ----------------------------------------------------

 --------------------------------------
 mol_17.24.33.pdbc_plusQ.z58286.zip.xyz
 --------------------------------------
 Symbolic Z-matrix:
 Charge =  1 Multiplicity = 1

                         Standard orientation:
 ---------------------------------------------------------------------
 Center     Atomic     Atomic              Coordinates (Angstroms)
 Number     Number      Type              X           Y           Z
 ---------------------------------------------------------------------
    1          8             0        2.448230    0.807547    0.678870
    2          8             0        2.260200    0.912727   -0.874000
    3         20             0        2.418948   -1.224293   -0.246330
    4         15             0       -0.690532   -1.056990    0.783280
    5          8             0        0.305717   -2.018321    0.013380
    6         20             0       -3.279871   -0.367668   -0.249850
    7          8             0       -1.801720    1.378451    0.060890
    8          8             0       -1.033851    0.256730   -0.602490
    9         20             0        0.507391    1.849849    0.198060
 ---------------------------------------------------------------------

 SCF Done:  E(RB+HF-LYP) =  -2750.03290855     A.U. after    8 cycles

 The electronic state is 1-A.
 Alpha  occ. eigenvalues -- -145.53574-145.49703-145.47967 -77.22820 -19.31069
 Alpha  occ. eigenvalues --  -19.28204 -19.23265 -19.22276 -19.22188 -15.60456
 Alpha  occ. eigenvalues --  -15.56566 -15.54802 -12.73671 -12.73629 -12.73571
 Alpha  occ. eigenvalues --  -12.69780 -12.69777 -12.69660 -12.68052 -12.68013
 Alpha  occ. eigenvalues --  -12.67879  -6.68835  -4.85410  -4.84908  -4.84529
 Alpha  occ. eigenvalues --   -1.97474  -1.93768  -1.92029  -1.25550  -1.25005
 Alpha  occ. eigenvalues --   -1.24608  -1.21960  -1.21340  -1.21270  -1.20611
 Alpha  occ. eigenvalues --   -1.19687  -1.19583  -1.14463  -1.05794  -1.04874
 Alpha  occ. eigenvalues --   -0.93197  -0.85963  -0.65402  -0.54194  -0.53397
 Alpha  occ. eigenvalues --   -0.52789  -0.45964  -0.45435  -0.44585  -0.44317
 Alpha  occ. eigenvalues --   -0.42749  -0.41681  -0.39423  -0.37002  -0.33406
 Alpha  occ. eigenvalues --   -0.30863  -0.26964
 Alpha virt. eigenvalues --   -0.21039  -0.17594  -0.15651  -0.14211  -0.12675
 Alpha virt. eigenvalues --   -0.11812  -0.11285  -0.10457  -0.09151  -0.08530
 Alpha virt. eigenvalues --   -0.08034  -0.07061  -0.06612  -0.06146  -0.05999

 Mulliken atomic charges:
              1
     1  O   -0.667373
     2  O   -0.653625
     3  Ca   1.486264
     4  P    0.045213
     5  O   -0.713919
     6  Ca   1.123332
     7  O   -0.649373
     8  O   -0.381037
     9  Ca   1.410518
 Sum of Mulliken charges=   1.00000

 Dipole moment (field-independent basis, Debye):
    X=    -4.5305    Y=    -0.9694    Z=    -1.6516  Tot=     4.9186
 Quadrupole moment (field-independent basis, Debye-Ang):
   XX=   -23.0839   YY=   -61.2680   ZZ=   -81.8879
   XY=   -17.8338   XZ=     3.0620   YZ=     6.7678

 Normal termination of Gaussian 03 at Fri Jun 12 17:55:29 2015.
