 Gaussian 03, Revision E.01,
 Gaussian 03:  EM64T-G03RevE.01 11-Sep-2007

 ----------------------------------------------------
 # b3lyp/6-31+G(d,p) int=ultrafine pop=(ReadRadii,MK)
 ----------------------------------------------------

 ---------------------------------------
 mol_16.5.9.pdb_plusQ.out.z51634.zip.xyz
 ---------------------------------------
 Symbolic Z-matrix:
 Charge =  1 Multiplicity = 1

                         Standard orientation:
 ---------------------------------------------------------------------
 Center     Atomic     Atomic              Coordinates (Angstroms)
 Number     Number      Type              X           Y           Z
 ---------------------------------------------------------------------
    1          8             0       -0.051602   -0.755801    0.010471
    2          8             0        1.183387   -1.543602    0.005681
    3         15             0        2.555088   -0.675784   -0.003779
    4          8             0        2.181140    0.798027   -0.005879
    5         20             0       -2.355282   -0.984939   -0.003039
    6          8             0       -2.118110    1.111571   -0.003389
    7         20             0       -0.038960    1.647699    0.003121
 ---------------------------------------------------------------------

 SCF Done:  E(RB+HF-LYP) =  -1997.24345611     A.U. after    8 cycles

 The electronic state is 1-A.
 Alpha  occ. eigenvalues -- -145.53180-145.49983 -77.33166 -19.37615 -19.31253
 Alpha  occ. eigenvalues --  -19.31063 -19.14541 -15.60002 -15.56898 -12.73239
 Alpha  occ. eigenvalues --  -12.73172 -12.73105 -12.70162 -12.70093 -12.69941
 Alpha  occ. eigenvalues --   -6.78895  -4.95227  -4.95178  -4.94659  -1.97074
 Alpha  occ. eigenvalues --   -1.94161  -1.25188  -1.24771  -1.23985  -1.23729
 Alpha  occ. eigenvalues --   -1.22094  -1.21498  -1.21130  -1.14499  -0.99931
 Alpha  occ. eigenvalues --   -0.88715  -0.71618  -0.62442  -0.59516  -0.57810
 Alpha  occ. eigenvalues --   -0.50956  -0.50475  -0.46068  -0.42905  -0.40975
 Alpha  occ. eigenvalues --   -0.34586  -0.32688  -0.32617
 Alpha virt. eigenvalues --   -0.22842  -0.21676  -0.18242  -0.15500  -0.13031
 Alpha virt. eigenvalues --   -0.12201  -0.11017  -0.10842  -0.09520  -0.07754
 Alpha virt. eigenvalues --   -0.07441  -0.06874  -0.06254  -0.05611  -0.05419

 Mulliken atomic charges:
              1
     1  O   -0.590516
     2  O   -0.335270
     3  P    0.826870
     4  O   -0.692865
     5  Ca   1.431347
     6  O   -1.099721
     7  Ca   1.460156
 Sum of Mulliken charges=   1.00000

 Dipole moment (field-independent basis, Debye):
    X=    -3.4261    Y=    -2.3524    Z=    -0.0043  Tot=     4.1560
 Quadrupole moment (field-independent basis, Debye-Ang):
   XX=   -38.8657   YY=   -39.5222   ZZ=   -55.1865
   XY=    25.5820   XZ=     0.0265   YZ=     0.1451

 Normal termination of Gaussian 03 at Fri Jun 12 17:49:45 2015.
