 Gaussian 03, Revision E.01,
 Gaussian 03:  EM64T-G03RevE.01 11-Sep-2007

 ----------------------------------------------------
 # b3lyp/6-31+G(d,p) int=ultrafine pop=(ReadRadii,MK)
 ----------------------------------------------------

 -----------------------------------------
 mol_17.22.45.pdbcccc_plusQ.z58195.zip.xyz
 -----------------------------------------
 Symbolic Z-matrix:
 Charge =  1 Multiplicity = 1

                         Standard orientation:
 ---------------------------------------------------------------------
 Center     Atomic     Atomic              Coordinates (Angstroms)
 Number     Number      Type              X           Y           Z
 ---------------------------------------------------------------------
    1          8             0        0.705016    0.721629   -1.266491
    2          8             0        2.926161   -0.001575   -0.000041
    3          8             0        0.705057    0.734358    1.259119
    4         15             0        1.446181   -0.001763   -0.000021
    5          8             0        0.704159   -1.458422    0.007321
    6         20             0       -0.775767    1.960733   -0.009860
    7          8             0       -1.915709    0.001883    0.000040
    8         20             0       -0.779418   -0.987827   -1.692197
    9         20             0       -0.779323   -0.970732    1.702093
 ---------------------------------------------------------------------

 SCF Done:  E(RB+HF-LYP) =  -2750.33241998     A.U. after    8 cycles

 The electronic state is 1-A.
 Alpha  occ. eigenvalues -- -145.51543-145.51537-145.51532 -77.29642 -19.22153
 Alpha  occ. eigenvalues --  -19.22136 -19.22136 -19.17367 -19.16950 -15.58332
 Alpha  occ. eigenvalues --  -15.58328 -15.58322 -12.71537 -12.71537 -12.71530
 Alpha  occ. eigenvalues --  -12.71506 -12.71505 -12.71499 -12.71466 -12.71466
 Alpha  occ. eigenvalues --  -12.71460  -6.73988  -4.90400  -4.90400  -4.90176
 Alpha  occ. eigenvalues --   -1.95610  -1.95534  -1.95529  -1.24178  -1.23500
 Alpha  occ. eigenvalues --   -1.23496  -1.23038  -1.22985  -1.22852  -1.22849
 Alpha  occ. eigenvalues --   -1.22404  -1.22400  -1.10631  -1.02401  -1.02376
 Alpha  occ. eigenvalues --   -1.00882  -0.92279  -0.61915  -0.53117  -0.53114
 Alpha  occ. eigenvalues --   -0.49406  -0.45147  -0.45144  -0.42198  -0.40256
 Alpha  occ. eigenvalues --   -0.40245  -0.39411  -0.37722  -0.37721  -0.35015
 Alpha  occ. eigenvalues --   -0.34623  -0.34619
 Alpha virt. eigenvalues --   -0.21585  -0.19014  -0.19012  -0.13413  -0.13408
 Alpha virt. eigenvalues --   -0.11691  -0.09950  -0.09950  -0.09246  -0.09108
 Alpha virt. eigenvalues --   -0.07006  -0.06505  -0.06503  -0.04961  -0.04852

 Mulliken atomic charges:
              1
     1  O   -1.128092
     2  O   -0.646583
     3  O   -1.128095
     4  P    1.864606
     5  O   -1.127899
     6  Ca   1.482234
     7  O   -1.280345
     8  Ca   1.482087
     9  Ca   1.482088
 Sum of Mulliken charges=   1.00000

 Dipole moment (field-independent basis, Debye):
    X=   -13.7255    Y=     0.0047    Z=     0.0002  Tot=    13.7255
 Quadrupole moment (field-independent basis, Debye-Ang):
   XX=  -104.6615   YY=   -40.3860   ZZ=   -40.4188
   XY=     0.0637   XZ=     0.0014   YZ=    -0.0002

 Normal termination of Gaussian 03 at Fri Jun 12 17:50:54 2015.
