 Gaussian 03, Revision E.01,
 Gaussian 03:  EM64T-G03RevE.01 11-Sep-2007

 ----------------------------------------------------
 # b3lyp/6-31+G(d,p) int=ultrafine pop=(ReadRadii,MK)
 ----------------------------------------------------

 ---------------------------------------
 mol_17.26.11.pdbcc_plusQ.z58370.zip.xyz
 ---------------------------------------
 Symbolic Z-matrix:
 Charge =  1 Multiplicity = 1

                         Standard orientation:
 ---------------------------------------------------------------------
 Center     Atomic     Atomic              Coordinates (Angstroms)
 Number     Number      Type              X           Y           Z
 ---------------------------------------------------------------------
    1          8             0        0.756135   -1.249632   -0.033539
    2          8             0        0.758691    1.250368   -0.036309
    3         15             0        0.972358    0.001388    1.110321
    4          8             0        2.542638    0.000024    1.245291
    5         20             0        2.534298   -0.002166   -1.021319
    6         20             0       -1.439627    1.800794   -0.044579
    7          8             0       -2.632812    0.001127    0.531641
    8          8             0       -2.378712    0.000456   -1.015539
    9         20             0       -1.442316   -1.800606   -0.043459
 ---------------------------------------------------------------------

 SCF Done:  E(RB+HF-LYP) =  -2750.19821042     A.U. after    7 cycles

 The electronic state is 1-A.
 Alpha  occ. eigenvalues -- -145.52887-145.49505-145.49494 -77.24301 -19.22793
 Alpha  occ. eigenvalues --  -19.22506 -19.21327 -19.21324 -19.19021 -15.59679
 Alpha  occ. eigenvalues --  -15.56367 -15.56356 -12.72862 -12.72858 -12.72845
 Alpha  occ. eigenvalues --  -12.69593 -12.69583 -12.69568 -12.69557 -12.69457
 Alpha  occ. eigenvalues --  -12.69446  -6.69590  -4.85970  -4.85894  -4.85453
 Alpha  occ. eigenvalues --   -1.96714  -1.93609  -1.93573  -1.24677  -1.23979
 Alpha  occ. eigenvalues --   -1.23940  -1.22274  -1.21279  -1.21227  -1.21052
 Alpha  occ. eigenvalues --   -1.21026  -1.20593  -1.06714  -1.05360  -0.99868
 Alpha  occ. eigenvalues --   -0.99597  -0.86448  -0.61783  -0.49596  -0.49236
 Alpha  occ. eigenvalues --   -0.48396  -0.46089  -0.44982  -0.43562  -0.42568
 Alpha  occ. eigenvalues --   -0.41979  -0.37838  -0.37836  -0.34589  -0.33871
 Alpha  occ. eigenvalues --   -0.32214  -0.31068
 Alpha virt. eigenvalues --   -0.20490  -0.17973  -0.17402  -0.13047  -0.12113
 Alpha virt. eigenvalues --   -0.11133  -0.09670  -0.08664  -0.08334  -0.07573
 Alpha virt. eigenvalues --   -0.06945  -0.06821  -0.06582  -0.06263  -0.05324

 Mulliken atomic charges:
              1
     1  O   -0.972079
     2  O   -0.971748
     3  P    0.803803
     4  O   -0.869843
     5  Ca   1.357325
     6  Ca   1.484986
     7  O   -0.658023
     8  O   -0.659840
     9  Ca   1.485419
 Sum of Mulliken charges=   1.00000

 Dipole moment (field-independent basis, Debye):
    X=     1.3322    Y=    -0.0219    Z=    -8.1490  Tot=     8.2572
 Quadrupole moment (field-independent basis, Debye-Ang):
   XX=   -62.1078   YY=   -36.3258   ZZ=   -75.9355
   XY=    -0.0017   XZ=   -28.8018   YZ=     0.0132

 Normal termination of Gaussian 03 at Fri Jun 12 17:59:25 2015.
