 Gaussian 03, Revision E.01,
 Gaussian 03:  EM64T-G03RevE.01 11-Sep-2007

 ----------------------------------------------------
 # b3lyp/6-31+G(d,p) int=ultrafine pop=(ReadRadii,MK)
 ----------------------------------------------------

 ----------------------------------------
 mol_17.23.12.pdbccc_plusQ.z58213.zip.xyz
 ----------------------------------------
 Symbolic Z-matrix:
 Charge =  1 Multiplicity = 1

                         Standard orientation:
 ---------------------------------------------------------------------
 Center     Atomic     Atomic              Coordinates (Angstroms)
 Number     Number      Type              X           Y           Z
 ---------------------------------------------------------------------
    1          8             0        0.000000    1.195700    0.000000
    2          8             0        0.309062    2.719520    0.000000
    3         20             0       -1.930839    2.144883    0.000000
    4          8             0       -2.614452   -0.139497    0.000000
    5         15             0       -1.305923   -0.959958    0.000000
    6          8             0       -1.309914   -2.498928    0.000000
    7         20             0        2.200580    1.118948    0.000000
    8          8             0        2.517917   -1.023773    0.000000
    9         20             0        1.148656   -2.645071    0.000000
 ---------------------------------------------------------------------

 SCF Done:  E(RB+HF-LYP) =  -2750.13357485     A.U. after   10 cycles

 The electronic state is 1-A'.
 Alpha  occ. eigenvalues -- -145.53134-145.49949-145.45495 -77.27356 -19.26247
 Alpha  occ. eigenvalues --  -19.26052 -19.23340 -19.23108 -19.11536 -15.59917
 Alpha  occ. eigenvalues --  -15.56821 -15.52382 -12.73189 -12.73079 -12.73023
 Alpha  occ. eigenvalues --  -12.70072 -12.70041 -12.69864 -12.65654 -12.65563
 Alpha  occ. eigenvalues --  -12.65432  -6.72953  -4.89344  -4.89167  -4.88800
 Alpha  occ. eigenvalues --   -1.96942  -1.93927  -1.89677  -1.24777  -1.24745
 Alpha  occ. eigenvalues --   -1.24028  -1.21746  -1.21684  -1.20589  -1.17708
 Alpha  occ. eigenvalues --   -1.17668  -1.16590  -1.11546  -1.07225  -1.06387
 Alpha  occ. eigenvalues --   -0.86987  -0.85666  -0.64350  -0.53130  -0.52572
 Alpha  occ. eigenvalues --   -0.50284  -0.46708  -0.46430  -0.44219  -0.43749
 Alpha  occ. eigenvalues --   -0.43575  -0.35543  -0.34742  -0.31906  -0.31213
 Alpha  occ. eigenvalues --   -0.29801  -0.29518
 Alpha virt. eigenvalues --   -0.19996  -0.17694  -0.17323  -0.15029  -0.11890
 Alpha virt. eigenvalues --   -0.10334  -0.10273  -0.09994  -0.09110  -0.08531
 Alpha virt. eigenvalues --   -0.08205  -0.06884  -0.06466  -0.05838  -0.05330

 Mulliken atomic charges:
              1
     1  O   -0.638474
     2  O   -0.751968
     3  Ca   1.533572
     4  O   -0.751116
     5  P    0.576647
     6  O   -0.581474
     7  Ca   1.422313
     8  O   -1.220900
     9  Ca   1.411401
 Sum of Mulliken charges=   1.00000

 Dipole moment (field-independent basis, Debye):
    X=    -0.7654    Y=     3.5836    Z=     0.0000  Tot=     3.6644
 Quadrupole moment (field-independent basis, Debye-Ang):
   XX=   -60.1627   YY=   -29.5469   ZZ=   -73.8952
   XY=   -27.7848   XZ=     0.0000   YZ=     0.0000

 Normal termination of Gaussian 03 at Fri Jun 12 17:51:11 2015.
