 Gaussian 03, Revision E.01,
 Gaussian 03:  EM64T-G03RevE.01 11-Sep-2007

 ----------------------------------------------------
 # b3lyp/6-31+G(d,p) int=ultrafine pop=(ReadRadii,MK)
 ----------------------------------------------------

 ------------------------------------------
 mol_17.25.25.pdbccccc_plusQ.z58330.zip.xyz
 ------------------------------------------
 Symbolic Z-matrix:
 Charge =  1 Multiplicity = 1

                         Standard orientation:
 ---------------------------------------------------------------------
 Center     Atomic     Atomic              Coordinates (Angstroms)
 Number     Number      Type              X           Y           Z
 ---------------------------------------------------------------------
    1          8             0        1.028317   -1.625400    0.000000
    2          8             0        3.458257   -1.207622    0.000000
    3          8             0       -3.425962   -0.761675    0.000000
    4          8             0       -2.969181    0.666595    0.000000
    5         15             0        2.421306   -2.345111    0.000000
    6         20             0       -1.208812   -0.768777    0.000000
    7          8             0        0.000000    1.344821    0.000000
    8         20             0        2.067729    0.691619    0.000000
    9         20             0       -1.911469    2.469304    0.000000
 ---------------------------------------------------------------------

 SCF Done:  E(RB+HF-LYP) =  -2750.16578654     A.U. after   11 cycles

 The electronic state is 1-A'.
 Alpha  occ. eigenvalues -- -145.53224-145.51209-145.45424 -77.31580 -19.30287
 Alpha  occ. eigenvalues --  -19.28965 -19.19516 -19.18917 -19.16839 -15.60125
 Alpha  occ. eigenvalues --  -15.58004 -15.52302 -12.73392 -12.73342 -12.73150
 Alpha  occ. eigenvalues --  -12.71254 -12.71169 -12.71110 -12.65596 -12.65471
 Alpha  occ. eigenvalues --  -12.65364  -6.77232  -4.93662  -4.93428  -4.93013
 Alpha  occ. eigenvalues --   -1.97366  -1.95177  -1.89660  -1.25303  -1.25300
 Alpha  occ. eigenvalues --   -1.24289  -1.22935  -1.22923  -1.22173  -1.17944
 Alpha  occ. eigenvalues --   -1.17784  -1.16945  -1.15605  -1.09897  -1.02676
 Alpha  occ. eigenvalues --   -0.93514  -0.80844  -0.68976  -0.57881  -0.55318
 Alpha  occ. eigenvalues --   -0.54608  -0.46977  -0.45537  -0.44064  -0.43219
 Alpha  occ. eigenvalues --   -0.40775  -0.39671  -0.39158  -0.37897  -0.37416
 Alpha  occ. eigenvalues --   -0.26859  -0.25249
 Alpha virt. eigenvalues --   -0.21695  -0.21203  -0.19521  -0.14671  -0.13691
 Alpha virt. eigenvalues --   -0.11859  -0.11610  -0.10411  -0.09597  -0.08974
 Alpha virt. eigenvalues --   -0.08955  -0.07451  -0.07131  -0.07012  -0.05722

 Mulliken atomic charges:
              1
     1  O   -0.748245
     2  O   -0.645022
     3  O   -0.620757
     4  O   -0.635643
     5  P    0.696089
     6  Ca   1.332294
     7  O   -1.345594
     8  Ca   1.501047
     9  Ca   1.465831
 Sum of Mulliken charges=   1.00000

 Dipole moment (field-independent basis, Debye):
    X=     8.1169    Y=    10.8329    Z=     0.0000  Tot=    13.5364
 Quadrupole moment (field-independent basis, Debye-Ang):
   XX=   -92.2401   YY=   -33.3131   ZZ=   -72.9873
   XY=   -16.7216   XZ=     0.0000   YZ=     0.0000

 Normal termination of Gaussian 03 at Fri Jun 12 17:57:37 2015.
