 Gaussian 03, Revision E.01,
 Gaussian 03:  EM64T-G03RevE.01 11-Sep-2007

 ----------------------------------------------------
 # b3lyp/6-31+G(d,p) int=ultrafine pop=(ReadRadii,MK)
 ----------------------------------------------------

 -------------------------------------
 mol_17.27.24.pdb_plusQ.z58492.zip.xyz
 -------------------------------------
 Symbolic Z-matrix:
 Charge =  1 Multiplicity = 1

                         Standard orientation:
 ---------------------------------------------------------------------
 Center     Atomic     Atomic              Coordinates (Angstroms)
 Number     Number      Type              X           Y           Z
 ---------------------------------------------------------------------
    1         20             0       -1.442312   -1.800598   -0.043481
    2          8             0       -2.378728    0.000464   -1.015531
    3          8             0       -2.632758    0.001134    0.531659
    4         20             0       -1.439605    1.800802   -0.044591
    5          8             0        0.758694    1.250318   -0.036331
    6         15             0        0.972322    0.001377    1.110369
    7          8             0        0.756139   -1.249652   -0.033541
    8         20             0        2.534292   -0.002156   -1.021321
    9          8             0        2.542612    0.000034    1.245279
 ---------------------------------------------------------------------

 SCF Done:  E(RB+HF-LYP) =  -2750.19821041     A.U. after    7 cycles

 The electronic state is 1-A.
 Alpha  occ. eigenvalues -- -145.52886-145.49504-145.49494 -77.24302 -19.22793
 Alpha  occ. eigenvalues --  -19.22506 -19.21327 -19.21323 -19.19021 -15.59679
 Alpha  occ. eigenvalues --  -15.56366 -15.56356 -12.72861 -12.72857 -12.72845
 Alpha  occ. eigenvalues --  -12.69593 -12.69583 -12.69567 -12.69557 -12.69456
 Alpha  occ. eigenvalues --  -12.69446  -6.69590  -4.85970  -4.85894  -4.85454
 Alpha  occ. eigenvalues --   -1.96714  -1.93609  -1.93573  -1.24676  -1.23979
 Alpha  occ. eigenvalues --   -1.23939  -1.22274  -1.21279  -1.21227  -1.21051
 Alpha  occ. eigenvalues --   -1.21026  -1.20593  -1.06714  -1.05360  -0.99867
 Alpha  occ. eigenvalues --   -0.99596  -0.86448  -0.61783  -0.49596  -0.49236
 Alpha  occ. eigenvalues --   -0.48395  -0.46089  -0.44982  -0.43561  -0.42567
 Alpha  occ. eigenvalues --   -0.41979  -0.37837  -0.37835  -0.34588  -0.33871
 Alpha  occ. eigenvalues --   -0.32215  -0.31068
 Alpha virt. eigenvalues --   -0.20490  -0.17973  -0.17402  -0.13047  -0.12113
 Alpha virt. eigenvalues --   -0.11133  -0.09670  -0.08664  -0.08335  -0.07573
 Alpha virt. eigenvalues --   -0.06944  -0.06821  -0.06582  -0.06263  -0.05324

 Mulliken atomic charges:
              1
     1  Ca   1.485406
     2  O   -0.659845
     3  O   -0.658018
     4  Ca   1.484979
     5  O   -0.971779
     6  P    0.803855
     7  O   -0.972112
     8  Ca   1.357367
     9  O   -0.869853
 Sum of Mulliken charges=   1.00000

 Dipole moment (field-independent basis, Debye):
    X=     1.3323    Y=    -0.0214    Z=    -8.1491  Tot=     8.2574
 Quadrupole moment (field-independent basis, Debye-Ang):
   XX=   -62.1073   YY=   -36.3259   ZZ=   -75.9346
   XY=    -0.0012   XZ=   -28.8016   YZ=     0.0133

 Normal termination of Gaussian 03 at Fri Jun 12 18:06:30 2015.
