 Gaussian 03, Revision E.01,
 Gaussian 03:  EM64T-G03RevE.01 11-Sep-2007

 ----------------------------------------------------
 # b3lyp/6-31+G(d,p) int=ultrafine pop=(ReadRadii,MK)
 ----------------------------------------------------

 ----------------------------------------
 mol_16.4.55.pdb_plusQ.out.z51606.zip.xyz
 ----------------------------------------
 Symbolic Z-matrix:
 Charge =  1 Multiplicity = 1

                         Standard orientation:
 ---------------------------------------------------------------------
 Center     Atomic     Atomic              Coordinates (Angstroms)
 Number     Number      Type              X           Y           Z
 ---------------------------------------------------------------------
    1          8             0        2.303251   -2.181829    0.000000
    2          8             0        0.841621   -1.829390    0.000000
    3          8             0       -2.303930   -0.176842    0.000000
    4         15             0       -0.829089   -0.785601    0.000000
    5         20             0       -1.901671    1.974849    0.000000
    6          8             0        0.000000    0.756940    0.000000
    7         20             0        2.187110   -0.013199    0.000000
 ---------------------------------------------------------------------

 SCF Done:  E(RB+HF-LYP) =  -1997.17687048     A.U. after   10 cycles

 The electronic state is 1-A'.
 Alpha  occ. eigenvalues -- -145.59131-145.52691 -77.29176 -19.27491 -19.26046
 Alpha  occ. eigenvalues --  -19.25648 -19.21763 -15.65948 -15.59578 -12.79186
 Alpha  occ. eigenvalues --  -12.79095 -12.79077 -12.72837 -12.72753 -12.72650
 Alpha  occ. eigenvalues --   -6.74153  -4.90417  -4.90329  -4.90184  -2.02933
 Alpha  occ. eigenvalues --   -1.96802  -1.30570  -1.30398  -1.30073  -1.24883
 Alpha  occ. eigenvalues --   -1.24599  -1.23923  -1.10315  -1.08071  -1.04930
 Alpha  occ. eigenvalues --   -0.87423  -0.66428  -0.54643  -0.53634  -0.50546
 Alpha  occ. eigenvalues --   -0.48771  -0.44098  -0.44024  -0.43531  -0.42725
 Alpha  occ. eigenvalues --   -0.35434  -0.31427  -0.30081
 Alpha virt. eigenvalues --   -0.25440  -0.21164  -0.18584  -0.16351  -0.16020
 Alpha virt. eigenvalues --   -0.13626  -0.12326  -0.10872  -0.09397  -0.08881
 Alpha virt. eigenvalues --   -0.06890  -0.06689  -0.06064  -0.05640  -0.05329

 Mulliken atomic charges:
              1
     1  O   -0.581377
     2  O   -0.462745
     3  O   -0.773289
     4  P    0.826831
     5  Ca   1.530196
     6  O   -0.997016
     7  Ca   1.457400
 Sum of Mulliken charges=   1.00000

 Dipole moment (field-independent basis, Debye):
    X=    -1.1639    Y=    19.8750    Z=     0.0000  Tot=    19.9090
 Quadrupole moment (field-independent basis, Debye-Ang):
   XX=   -25.2136   YY=   -47.0992   ZZ=   -55.7636
   XY=   -10.5959   XZ=     0.0000   YZ=     0.0000

 Normal termination of Gaussian 03 at Fri Jun 12 17:48:56 2015.
