 Gaussian 03, Revision E.01,
 Gaussian 03:  EM64T-G03RevE.01 11-Sep-2007

 ----------------------------------------------------
 # b3lyp/6-31+G(d,p) int=ultrafine pop=(ReadRadii,MK)
 ----------------------------------------------------

 ----------------------------------------
 mol_17.26.3.pdbcccc_plusQ.z58391.zip.xyz
 ----------------------------------------
 Symbolic Z-matrix:
 Charge =  1 Multiplicity = 1

                         Standard orientation:
 ---------------------------------------------------------------------
 Center     Atomic     Atomic              Coordinates (Angstroms)
 Number     Number      Type              X           Y           Z
 ---------------------------------------------------------------------
    1          8             0        2.060221    0.000835   -0.101260
    2          8             0        1.627221   -0.007983    1.365320
    3          8             0       -0.668735    1.251003    0.985850
    4         15             0       -0.020399   -0.010469    1.842130
    5         20             0        0.721756    1.690519   -0.834550
    6          8             0       -0.668862   -1.262147    0.971660
    7          8             0       -0.510059    0.009883   -1.754590
    8         20             0        0.722027   -1.680801   -0.853330
    9         20             0       -2.164399    0.001497   -0.280510
 ---------------------------------------------------------------------

 SCF Done:  E(RB+HF-LYP) =  -2750.21012827     A.U. after    8 cycles

 The electronic state is 1-A.
 Alpha  occ. eigenvalues -- -145.50878-145.49977-145.49974 -77.26615 -19.28659
 Alpha  occ. eigenvalues --  -19.25247 -19.22899 -19.22898 -19.16859 -15.57716
 Alpha  occ. eigenvalues --  -15.56795 -15.56793 -12.70922 -12.70887 -12.70842
 Alpha  occ. eigenvalues --  -12.69993 -12.69993 -12.69966 -12.69966 -12.69941
 Alpha  occ. eigenvalues --  -12.69940  -6.71713  -4.88133  -4.88010  -4.87486
 Alpha  occ. eigenvalues --   -1.95024  -1.94084  -1.94030  -1.23110  -1.22774
 Alpha  occ. eigenvalues --   -1.22387  -1.22272  -1.21604  -1.21581  -1.21355
 Alpha  occ. eigenvalues --   -1.21288  -1.20981  -1.13395  -1.06848  -1.02234
 Alpha  occ. eigenvalues --   -0.93404  -0.91712  -0.64996  -0.55620  -0.52562
 Alpha  occ. eigenvalues --   -0.51430  -0.48100  -0.46969  -0.44008  -0.42105
 Alpha  occ. eigenvalues --   -0.39435  -0.38481  -0.37007  -0.36050  -0.35629
 Alpha  occ. eigenvalues --   -0.35469  -0.32662
 Alpha virt. eigenvalues --   -0.20695  -0.18355  -0.17807  -0.13806  -0.12910
 Alpha virt. eigenvalues --   -0.11312  -0.10841  -0.09447  -0.09265  -0.08194
 Alpha virt. eigenvalues --   -0.07390  -0.06437  -0.06182  -0.05880  -0.04928

 Mulliken atomic charges:
              1
     1  O   -0.650394
     2  O   -0.444623
     3  O   -1.048785
     4  P    1.050623
     5  Ca   1.490109
     6  O   -1.048798
     7  O   -1.258685
     8  Ca   1.490058
     9  Ca   1.420494
 Sum of Mulliken charges=   1.00000

 Dipole moment (field-independent basis, Debye):
    X=    -5.1109    Y=     0.0478    Z=    -8.2820  Tot=     9.7322
 Quadrupole moment (field-independent basis, Debye-Ang):
   XX=   -52.5632   YY=   -42.2270   ZZ=   -90.6121
   XY=     0.0467   XZ=    -8.8083   YZ=     0.2702

 Normal termination of Gaussian 03 at Fri Jun 12 18:01:03 2015.
