 Gaussian 03, Revision E.01,
 Gaussian 03:  EM64T-G03RevE.01 11-Sep-2007

 ----------------------------------------------------
 # b3lyp/6-31+G(d,p) int=ultrafine pop=(ReadRadii,MK)
 ----------------------------------------------------

 -------------------------------------
 mol_17.29.0.pdbc_plusQ.z58589.zip.xyz
 -------------------------------------
 Symbolic Z-matrix:
 Charge =  1 Multiplicity = 1

                         Standard orientation:
 ---------------------------------------------------------------------
 Center     Atomic     Atomic              Coordinates (Angstroms)
 Number     Number      Type              X           Y           Z
 ---------------------------------------------------------------------
    1          8             0        0.520171   -0.163799    1.304109
    2          8             0        0.075102   -1.567299   -0.728811
    3         15             0       -0.574309   -0.600120    0.280809
    4         20             0       -3.183619    0.270748   -0.369901
    5          8             0       -1.006270    0.830920   -0.450041
    6          8             0       -1.953428   -1.096711    0.830369
    7         20             0        2.320372   -1.232287   -0.177591
    8          8             0        2.810850    0.819883   -0.554091
    9         20             0        1.115409    1.882432    0.176269
 ---------------------------------------------------------------------

 SCF Done:  E(RB+HF-LYP) =  -2750.29798964     A.U. after   13 cycles

 The electronic state is 1-A.
 Alpha  occ. eigenvalues -- -145.58184-145.46283-145.45773 -77.30893 -19.23793
 Alpha  occ. eigenvalues --  -19.22120 -19.21376 -19.20139 -19.09461 -15.64960
 Alpha  occ. eigenvalues --  -15.53118 -15.52631 -12.78206 -12.78113 -12.78098
 Alpha  occ. eigenvalues --  -12.66344 -12.66320 -12.66197 -12.65857 -12.65839
 Alpha  occ. eigenvalues --  -12.65706  -6.75282  -4.91731  -4.91602  -4.91545
 Alpha  occ. eigenvalues --   -2.01900  -1.90365  -1.89851  -1.29537  -1.29353
 Alpha  occ. eigenvalues --   -1.29007  -1.18661  -1.18031  -1.17652  -1.17511
 Alpha  occ. eigenvalues --   -1.17495  -1.16632  -1.11959  -1.03995  -1.03124
 Alpha  occ. eigenvalues --   -1.02168  -0.83597  -0.62166  -0.53753  -0.52875
 Alpha  occ. eigenvalues --   -0.51876  -0.46718  -0.43772  -0.43423  -0.42115
 Alpha  occ. eigenvalues --   -0.41437  -0.39385  -0.36885  -0.36587  -0.29356
 Alpha  occ. eigenvalues --   -0.27694  -0.27527
 Alpha virt. eigenvalues --   -0.24257  -0.16937  -0.15010  -0.14525  -0.14019
 Alpha virt. eigenvalues --   -0.11574  -0.08811  -0.07984  -0.07477  -0.06829
 Alpha virt. eigenvalues --   -0.06313  -0.06106  -0.05367  -0.05331  -0.05112

 Mulliken atomic charges:
              1
     1  O   -1.009753
     2  O   -0.880181
     3  P    1.779482
     4  Ca   1.521332
     5  O   -1.126280
     6  O   -0.893457
     7  Ca   1.393166
     8  O   -1.150081
     9  Ca   1.365772
 Sum of Mulliken charges=   1.00000

 Dipole moment (field-independent basis, Debye):
    X=   -11.6515    Y=     4.5333    Z=    -1.1337  Tot=    12.5536
 Quadrupole moment (field-independent basis, Debye-Ang):
   XX=   -13.2899   YY=   -52.9384   ZZ=   -84.9493
   XY=   -30.4839   XZ=    18.9759   YZ=     6.8883

 Normal termination of Gaussian 03 at Fri Jun 12 18:12:12 2015.
