 Gaussian 03, Revision E.01,
 Gaussian 03:  EM64T-G03RevE.01 11-Sep-2007

 ----------------------------------------------------
 # b3lyp/6-31+G(d,p) int=ultrafine pop=(ReadRadii,MK)
 ----------------------------------------------------

 -----------------------------------------
 mol_17.24.34.pdbcccc_plusQ.z58287.zip.xyz
 -----------------------------------------
 Symbolic Z-matrix:
 Charge =  1 Multiplicity = 1

                         Standard orientation:
 ---------------------------------------------------------------------
 Center     Atomic     Atomic              Coordinates (Angstroms)
 Number     Number      Type              X           Y           Z
 ---------------------------------------------------------------------
    1          8             0       -1.548130    0.000427    1.146560
    2         15             0       -2.494940    0.000096   -0.198700
    3          8             0       -2.078711    1.335386   -0.911060
    4          8             0       -2.079738   -1.336154   -0.909870
    5         20             0       -0.188378   -1.702831    0.345800
    6          8             0        1.517830    0.001240    0.885190
    7          8             0        1.177110   -0.000380   -0.636810
    8         20             0        3.452400   -0.000477   -0.371830
    9         20             0       -0.188162    1.703029    0.345450
 ---------------------------------------------------------------------

 SCF Done:  E(RB+HF-LYP) =  -2750.15750968     A.U. after   20 cycles

 The electronic state is 1-A.
 Alpha  occ. eigenvalues -- -145.56214-145.51126-145.51119 -77.27107 -19.30501
 Alpha  occ. eigenvalues --  -19.30485 -19.22907 -19.21790 -19.21789 -15.63125
 Alpha  occ. eigenvalues --  -15.57932 -15.57926 -12.76350 -12.76298 -12.76219
 Alpha  occ. eigenvalues --  -12.71151 -12.71145 -12.71119 -12.71113 -12.71058
 Alpha  occ. eigenvalues --  -12.71053  -6.72191  -4.88528  -4.88426  -4.88346
 Alpha  occ. eigenvalues --   -2.00116  -1.95105  -1.95051  -1.27807  -1.27711
 Alpha  occ. eigenvalues --   -1.27446  -1.23692  -1.23084  -1.22638  -1.22499
 Alpha  occ. eigenvalues --   -1.22436  -1.22168  -1.13716  -1.09534  -1.02655
 Alpha  occ. eigenvalues --   -1.02083  -0.94007  -0.61783  -0.53654  -0.53325
 Alpha  occ. eigenvalues --   -0.52699  -0.51405  -0.50644  -0.49189  -0.44746
 Alpha  occ. eigenvalues --   -0.42116  -0.40690  -0.39942  -0.39085  -0.38990
 Alpha  occ. eigenvalues --   -0.37142  -0.27799
 Alpha virt. eigenvalues --   -0.25207  -0.19510  -0.19343  -0.17309  -0.15829
 Alpha virt. eigenvalues --   -0.13469  -0.12955  -0.10202  -0.10171  -0.08775
 Alpha virt. eigenvalues --   -0.08629  -0.07737  -0.07081  -0.07017  -0.05706

 Mulliken atomic charges:
              1
     1  O   -0.889873
     2  P    0.953039
     3  O   -0.747013
     4  O   -0.746938
     5  Ca   1.329482
     6  O   -0.613157
     7  O   -0.664962
     8  Ca   1.049847
     9  Ca   1.329575
 Sum of Mulliken charges=   1.00000

 Dipole moment (field-independent basis, Debye):
    X=    14.0499    Y=     0.0020    Z=     3.1494  Tot=    14.3985
 Quadrupole moment (field-independent basis, Debye-Ang):
   XX=   -56.9803   YY=   -49.6027   ZZ=   -89.9121
   XY=    -0.0073   XZ=   -10.9726   YZ=    -0.0046

 Normal termination of Gaussian 03 at Fri Jun 12 17:57:41 2015.
