 Gaussian 03, Revision E.01,
 Gaussian 03:  EM64T-G03RevE.01 11-Sep-2007

 ----------------------------------------------------
 # b3lyp/6-31+G(d,p) int=ultrafine pop=(ReadRadii,MK)
 ----------------------------------------------------

 -----------------------------------------
 mol_16.4.15.pdbc_plusQ.out.z51566.zip.xyz
 -----------------------------------------
 Symbolic Z-matrix:
 Charge =  1 Multiplicity = 1

                         Standard orientation:
 ---------------------------------------------------------------------
 Center     Atomic     Atomic              Coordinates (Angstroms)
 Number     Number      Type              X           Y           Z
 ---------------------------------------------------------------------
    1          8             0       -1.381700    1.464112   -0.000219
    2          8             0       -0.000023   -0.331029   -1.196859
    3         20             0       -2.069813   -0.753097   -0.000009
    4         15             0       -0.000031    0.799171    0.000021
    5          8             0        1.381660    1.464169   -0.000329
    6          8             0        0.000087   -0.330249    1.197391
    7         20             0        2.069827   -0.753082    0.000000
 ---------------------------------------------------------------------

 SCF Done:  E(RB+HF-LYP) =  -1997.39007846     A.U. after    8 cycles

 The electronic state is 1-A.
 Alpha  occ. eigenvalues -- -145.57697-145.57695 -77.31326 -19.22613 -19.22606
 Alpha  occ. eigenvalues --  -19.22298 -19.22289 -15.64398 -15.64397 -12.77597
 Alpha  occ. eigenvalues --  -12.77596 -12.77584 -12.77583 -12.77583 -12.77582
 Alpha  occ. eigenvalues --   -6.76048  -4.92396  -4.92389  -4.92313  -2.01227
 Alpha  occ. eigenvalues --   -2.01220  -1.29334  -1.28820  -1.28442  -1.28441
 Alpha  occ. eigenvalues --   -1.28386  -1.28337  -1.12988  -1.05493  -1.03664
 Alpha  occ. eigenvalues --   -1.01681  -0.62395  -0.53173  -0.53140  -0.52457
 Alpha  occ. eigenvalues --   -0.45688  -0.45585  -0.45184  -0.42426  -0.40459
 Alpha  occ. eigenvalues --   -0.39277  -0.37993  -0.35883
 Alpha virt. eigenvalues --   -0.23655  -0.22444  -0.14869  -0.13487  -0.12801
 Alpha virt. eigenvalues --   -0.12507  -0.10778  -0.08515  -0.07910  -0.06635
 Alpha virt. eigenvalues --   -0.05355  -0.05333  -0.04645  -0.04456  -0.04312

 Mulliken atomic charges:
              1
     1  O   -0.826010
     2  O   -1.018113
     3  Ca   1.483041
     4  P    1.722067
     5  O   -0.825988
     6  O   -1.018037
     7  Ca   1.483039
 Sum of Mulliken charges=   1.00000

 Dipole moment (field-independent basis, Debye):
    X=     0.0000    Y=   -13.9791    Z=    -0.0001  Tot=    13.9791
 Quadrupole moment (field-independent basis, Debye-Ang):
   XX=     3.5520   YY=   -55.5647   ZZ=   -66.7976
   XY=     0.0002   XZ=     0.0001   YZ=    -0.0007

 Normal termination of Gaussian 03 at Fri Jun 12 17:46:34 2015.
