 Gaussian 03, Revision E.01,
 Gaussian 03:  EM64T-G03RevE.01 11-Sep-2007

 ----------------------------------------------------
 # b3lyp/6-31+G(d,p) int=ultrafine pop=(ReadRadii,MK)
 ----------------------------------------------------

 --------------------------------------
 mol_17.26.51.pdbc_plusQ.z58463.zip.xyz
 --------------------------------------
 Symbolic Z-matrix:
 Charge =  1 Multiplicity = 1

                         Standard orientation:
 ---------------------------------------------------------------------
 Center     Atomic     Atomic              Coordinates (Angstroms)
 Number     Number      Type              X           Y           Z
 ---------------------------------------------------------------------
    1          8             0       -0.335950   -0.930508   -0.294651
    2          8             0       -2.943152    0.746949   -0.408231
    3          8             0       -2.459692    0.834350    1.081639
    4         20             0       -0.808962    1.499831   -0.321271
    5         20             0       -2.446540   -1.282500    0.369529
    6         15             0        1.139770   -0.788147   -0.945271
    7          8             0        2.213920   -1.471286    0.026839
    8         20             0        3.239689    0.345144    0.695769
    9          8             0        1.427338    0.892083   -0.493281
 ---------------------------------------------------------------------

 SCF Done:  E(RB+HF-LYP) =  -2750.19795263     A.U. after    7 cycles

 The electronic state is 1-A.
 Alpha  occ. eigenvalues -- -145.54439-145.49725-145.46326 -77.24441 -19.21801
 Alpha  occ. eigenvalues --  -19.21264 -19.20899 -19.20756 -19.20339 -15.61300
 Alpha  occ. eigenvalues --  -15.56522 -15.53234 -12.74531 -12.74437 -12.74429
 Alpha  occ. eigenvalues --  -12.69733 -12.69708 -12.69649 -12.66469 -12.66457
 Alpha  occ. eigenvalues --  -12.66286  -6.69518  -4.85927  -4.85845  -4.85331
 Alpha  occ. eigenvalues --   -1.98415  -1.93706  -1.90586  -1.26080  -1.25907
 Alpha  occ. eigenvalues --   -1.25554  -1.21833  -1.21222  -1.21112  -1.18483
 Alpha  occ. eigenvalues --   -1.18339  -1.18048  -1.06955  -1.03525  -1.01174
 Alpha  occ. eigenvalues --   -0.99564  -0.84639  -0.62350  -0.51030  -0.50135
 Alpha  occ. eigenvalues --   -0.47440  -0.44520  -0.44229  -0.42688  -0.41960
 Alpha  occ. eigenvalues --   -0.40830  -0.38693  -0.37824  -0.37551  -0.31581
 Alpha  occ. eigenvalues --   -0.30330  -0.29528
 Alpha virt. eigenvalues --   -0.22205  -0.18033  -0.15324  -0.13697  -0.12621
 Alpha virt. eigenvalues --   -0.11337  -0.10040  -0.08832  -0.08450  -0.07261
 Alpha virt. eigenvalues --   -0.07131  -0.06056  -0.05725  -0.05628  -0.05087

 Mulliken atomic charges:
              1
     1  O   -1.010843
     2  O   -0.650793
     3  O   -0.657886
     4  Ca   1.452369
     5  Ca   1.479147
     6  P    0.902291
     7  O   -0.864300
     8  Ca   1.411214
     9  O   -1.061198
 Sum of Mulliken charges=   1.00000

 Dipole moment (field-independent basis, Debye):
    X=     6.6160    Y=     1.0551    Z=     4.9298  Tot=     8.3179
 Quadrupole moment (field-independent basis, Debye-Ang):
   XX=   -22.5960   YY=   -60.2904   ZZ=   -77.3372
   XY=    40.6593   XZ=    17.3820   YZ=    -6.2297

 Normal termination of Gaussian 03 at Fri Jun 12 18:01:42 2015.
