 Gaussian 03, Revision E.01,
 Gaussian 03:  EM64T-G03RevE.01 11-Sep-2007

 ----------------------------------------------------
 # b3lyp/6-31+G(d,p) int=ultrafine pop=(ReadRadii,MK)
 ----------------------------------------------------

 --------------------------------------
 mol_17.26.28.pdbc_plusQ.z58387.zip.xyz
 --------------------------------------
 Symbolic Z-matrix:
 Charge =  1 Multiplicity = 1

                         Standard orientation:
 ---------------------------------------------------------------------
 Center     Atomic     Atomic              Coordinates (Angstroms)
 Number     Number      Type              X           Y           Z
 ---------------------------------------------------------------------
    1          8             0        2.603672    0.376052    0.000089
    2          8             0       -0.653771    2.448693   -0.000241
    3         20             0       -2.414765    1.207709   -0.000111
    4          8             0       -2.263742   -0.923762    0.786699
    5          8             0       -2.264082   -0.923992   -0.786301
    6         20             0       -0.733547   -2.317447    0.000059
    7          8             0        1.507655   -1.923955   -0.000331
    8         15             0        2.840827   -1.146949   -0.000041
    9         20             0        1.445799    2.348736    0.000119
 ---------------------------------------------------------------------

 SCF Done:  E(RB+HF-LYP) =  -2750.19710339     A.U. after    8 cycles

 The electronic state is 1-A.
 Alpha  occ. eigenvalues -- -145.50248-145.49520-145.43947 -77.30079 -19.27867
 Alpha  occ. eigenvalues --  -19.27701 -19.22479 -19.22474 -19.12215 -15.57111
 Alpha  occ. eigenvalues --  -15.56423 -15.50921 -12.70348 -12.70327 -12.70181
 Alpha  occ. eigenvalues --  -12.69676 -12.69629 -12.69459 -12.64146 -12.64143
 Alpha  occ. eigenvalues --  -12.63956  -6.75552  -4.91999  -4.91777  -4.91331
 Alpha  occ. eigenvalues --   -1.94316  -1.93663  -1.88350  -1.22288  -1.22013
 Alpha  occ. eigenvalues --   -1.21914  -1.21519  -1.21390  -1.20570  -1.16522
 Alpha  occ. eigenvalues --   -1.16137  -1.15617  -1.13708  -1.08478  -1.04679
 Alpha  occ. eigenvalues --   -0.86295  -0.86238  -0.67759  -0.57321  -0.52565
 Alpha  occ. eigenvalues --   -0.52494  -0.45798  -0.45755  -0.44705  -0.43912
 Alpha  occ. eigenvalues --   -0.42961  -0.40390  -0.34037  -0.32615  -0.30969
 Alpha  occ. eigenvalues --   -0.30564  -0.30364
 Alpha virt. eigenvalues --   -0.19720  -0.18399  -0.17451  -0.14061  -0.12036
 Alpha virt. eigenvalues --   -0.10577  -0.10163  -0.08900  -0.08320  -0.08284
 Alpha virt. eigenvalues --   -0.07014  -0.06734  -0.06064  -0.05998  -0.05476

 Mulliken atomic charges:
              1
     1  O   -0.703798
     2  O   -1.247112
     3  Ca   1.394285
     4  O   -0.676300
     5  O   -0.676282
     6  Ca   1.497962
     7  O   -0.701754
     8  P    0.654097
     9  Ca   1.458902
 Sum of Mulliken charges=   1.00000

 Dipole moment (field-independent basis, Debye):
    X=     1.9827    Y=     0.5241    Z=     0.0012  Tot=     2.0508
 Quadrupole moment (field-independent basis, Debye-Ang):
   XX=   -55.9057   YY=   -34.8152   ZZ=   -77.5236
   XY=    11.2906   XZ=     0.0039   YZ=     0.0024

 Normal termination of Gaussian 03 at Fri Jun 12 18:00:20 2015.
