 Gaussian 03, Revision E.01,
 Gaussian 03:  EM64T-G03RevE.01 11-Sep-2007

 ----------------------------------------------------
 # b3lyp/6-31+G(d,p) int=ultrafine pop=(ReadRadii,MK)
 ----------------------------------------------------

 --------------------------------------
 mol_17.26.57.pdbc_plusQ.z58468.zip.xyz
 --------------------------------------
 Symbolic Z-matrix:
 Charge =  1 Multiplicity = 1

                         Standard orientation:
 ---------------------------------------------------------------------
 Center     Atomic     Atomic              Coordinates (Angstroms)
 Number     Number      Type              X           Y           Z
 ---------------------------------------------------------------------
    1          8             0        1.196610   -1.780734    0.765597
    2          8             0        1.196560   -1.783064   -0.764053
    3         20             0        2.685552   -0.304306   -0.001433
    4         15             0        1.608048    2.451588    0.001697
    5         20             0       -0.960450   -1.861245    0.000947
    6          8             0       -1.847989   -0.051480    1.197627
    7          8             0       -2.744079   -0.098414   -0.000323
    8          8             0       -1.847649   -0.052790   -1.198013
    9         20             0       -1.312519    1.833453   -0.001123
 ---------------------------------------------------------------------

 SCF Done:  E(RB+HF-LYP) =  -2749.88334286     A.U. after   13 cycles

 The electronic state is 1-A.
 Alpha  occ. eigenvalues -- -145.52322-145.52188-145.48271 -77.21178 -19.36486
 Alpha  occ. eigenvalues --  -19.27149 -19.27148 -19.25521 -19.25505 -15.59251
 Alpha  occ. eigenvalues --  -15.59069 -15.55090 -12.72463 -12.72458 -12.72332
 Alpha  occ. eigenvalues --  -12.72288 -12.72262 -12.72172 -12.68335 -12.68269
 Alpha  occ. eigenvalues --  -12.68207  -6.67936  -4.85051  -4.83542  -4.83403
 Alpha  occ. eigenvalues --   -1.96441  -1.96227  -1.92297  -1.26168  -1.24459
 Alpha  occ. eigenvalues --   -1.24018  -1.23730  -1.23715  -1.23684  -1.21382
 Alpha  occ. eigenvalues --   -1.20341  -1.19705  -1.17703  -1.09050  -1.02940
 Alpha  occ. eigenvalues --   -0.88256  -0.87718  -0.66111  -0.56920  -0.55318
 Alpha  occ. eigenvalues --   -0.54822  -0.49054  -0.48118  -0.46321  -0.43219
 Alpha  occ. eigenvalues --   -0.41028  -0.38764  -0.36173  -0.35984  -0.35400
 Alpha  occ. eigenvalues --   -0.33620  -0.32733
 Alpha virt. eigenvalues --   -0.29151  -0.19563  -0.17638  -0.15272  -0.13161
 Alpha virt. eigenvalues --   -0.13058  -0.11491  -0.09885  -0.09107  -0.09049
 Alpha virt. eigenvalues --   -0.08105  -0.07188  -0.06759  -0.06535  -0.06361

 Mulliken atomic charges:
              1
     1  O   -0.599726
     2  O   -0.599349
     3  Ca   1.202754
     4  P   -0.345522
     5  Ca   1.467954
     6  O   -0.610104
     7  O   -0.079073
     8  O   -0.610085
     9  Ca   1.173151
 Sum of Mulliken charges=   1.00000

 Dipole moment (field-independent basis, Debye):
    X=     3.3826    Y=     0.8816    Z=    -0.0179  Tot=     3.4957
 Quadrupole moment (field-independent basis, Debye-Ang):
   XX=   -45.7496   YY=   -60.5447   ZZ=   -85.7423
   XY=    -8.7892   XZ=    -0.0458   YZ=    -0.0512

 Normal termination of Gaussian 03 at Fri Jun 12 18:03:04 2015.
