 Gaussian 03, Revision E.01,
 Gaussian 03:  EM64T-G03RevE.01 11-Sep-2007

 ----------------------------------------------------
 # b3lyp/6-31+G(d,p) int=ultrafine pop=(ReadRadii,MK)
 ----------------------------------------------------

 --------------------------------------
 mol_17.27.29.pdbc_plusQ.z58496.zip.xyz
 --------------------------------------
 Symbolic Z-matrix:
 Charge =  1 Multiplicity = 1

                         Standard orientation:
 ---------------------------------------------------------------------
 Center     Atomic     Atomic              Coordinates (Angstroms)
 Number     Number      Type              X           Y           Z
 ---------------------------------------------------------------------
    1          8             0        1.312401    0.202121    0.000000
    2          8             0       -1.309429    0.204567    0.000000
    3          8             0        0.109257   -2.807561    0.000000
    4          8             0       -0.890811   -3.945372    0.000000
    5         20             0       -1.963135   -2.024784    0.000000
    6         15             0        0.000000    0.983179    0.000000
    7         20             0        2.068695   -1.974997    0.000000
    8         20             0        0.205093    4.801679    0.000000
    9          8             0        0.001947    2.498039    0.000000
 ---------------------------------------------------------------------

 SCF Done:  E(RB+HF-LYP) =  -2750.08814381     A.U. after   15 cycles

 The electronic state is 1-A'.
 Alpha  occ. eigenvalues -- -145.53008-145.50991-145.50029 -77.36122 -19.29142
 Alpha  occ. eigenvalues --  -19.29003 -19.28909 -19.22061 -19.19489 -15.59815
 Alpha  occ. eigenvalues --  -15.57957 -15.56910 -12.73058 -12.72994 -12.72923
 Alpha  occ. eigenvalues --  -12.71130 -12.71129 -12.71055 -12.70177 -12.70091
 Alpha  occ. eigenvalues --  -12.69975  -6.80876  -4.97406  -4.97062  -4.97052
 Alpha  occ. eigenvalues --   -1.96839  -1.94982  -1.94131  -1.24499  -1.24496
 Alpha  occ. eigenvalues --   -1.24097  -1.22379  -1.22334  -1.22328  -1.21986
 Alpha  occ. eigenvalues --   -1.21983  -1.21548  -1.17269  -1.10619  -1.10442
 Alpha  occ. eigenvalues --   -1.04922  -0.83748  -0.68443  -0.59162  -0.58684
 Alpha  occ. eigenvalues --   -0.55799  -0.50374  -0.48612  -0.46936  -0.46865
 Alpha  occ. eigenvalues --   -0.46217  -0.43420  -0.42923  -0.42040  -0.30021
 Alpha  occ. eigenvalues --   -0.27982  -0.24094
 Alpha virt. eigenvalues --   -0.21214  -0.18821  -0.16481  -0.15685  -0.12770
 Alpha virt. eigenvalues --   -0.12263  -0.12148  -0.10654  -0.10409  -0.09954
 Alpha virt. eigenvalues --   -0.09467  -0.08170  -0.07412  -0.06790  -0.05654

 Mulliken atomic charges:
              1
     1  O   -0.677205
     2  O   -0.690134
     3  O   -0.680306
     4  O   -0.604646
     5  Ca   1.397152
     6  P    1.021346
     7  Ca   1.365211
     8  Ca   0.552611
     9  O   -0.684029
 Sum of Mulliken charges=   1.00000

 Dipole moment (field-independent basis, Debye):
    X=     1.2167    Y=     2.9768    Z=     0.0000  Tot=     3.2158
 Quadrupole moment (field-independent basis, Debye-Ang):
   XX=   -40.4411   YY=   -60.6754   ZZ=   -83.0258
   XY=    -5.4470   XZ=     0.0000   YZ=     0.0000

 Normal termination of Gaussian 03 at Fri Jun 12 18:07:02 2015.
