 Gaussian 03, Revision E.01,
 Gaussian 03:  EM64T-G03RevE.01 11-Sep-2007

 ----------------------------------------------------
 # b3lyp/6-31+G(d,p) int=ultrafine pop=(ReadRadii,MK)
 ----------------------------------------------------

 ---------------------------------------
 mol_17.26.53.pdbcc_plusQ.z58465.zip.xyz
 ---------------------------------------
 Symbolic Z-matrix:
 Charge =  1 Multiplicity = 1

                         Standard orientation:
 ---------------------------------------------------------------------
 Center     Atomic     Atomic              Coordinates (Angstroms)
 Number     Number      Type              X           Y           Z
 ---------------------------------------------------------------------
    1          8             0        1.588192   -0.420611    0.715381
    2          8             0       -2.807708    0.223180    0.736141
    3          8             0       -2.630068   -0.613130   -0.587759
    4         20             0       -4.742498   -0.282920   -0.132749
    5         20             0       -0.591478    0.224170    0.107171
    6          8             0        1.017362    1.687980   -0.589559
    7         15             0        2.200792    1.153889    0.293071
    8          8             0        3.503402    0.716889   -0.515449
    9         20             0        3.414911   -1.444391   -0.097729
 ---------------------------------------------------------------------

 SCF Done:  E(RB+HF-LYP) =  -2750.14918021     A.U. after   18 cycles

 The electronic state is 1-A.
 Alpha  occ. eigenvalues -- -145.56505-145.51001-145.43280 -77.22297 -19.24858
 Alpha  occ. eigenvalues --  -19.24797 -19.19637 -19.18256 -19.17338 -15.63322
 Alpha  occ. eigenvalues --  -15.57897 -15.50204 -12.76567 -12.76505 -12.76424
 Alpha  occ. eigenvalues --  -12.71124 -12.71033 -12.71022 -12.63452 -12.63418
 Alpha  occ. eigenvalues --  -12.63253  -6.67372  -4.83780  -4.83650  -4.83332
 Alpha  occ. eigenvalues --   -2.00261  -1.95050  -1.87648  -1.27861  -1.27795
 Alpha  occ. eigenvalues --   -1.27550  -1.22714  -1.22618  -1.22224  -1.16099
 Alpha  occ. eigenvalues --   -1.15563  -1.15376  -1.07206  -1.04332  -0.98530
 Alpha  occ. eigenvalues --   -0.97373  -0.88675  -0.58380  -0.48165  -0.47834
 Alpha  occ. eigenvalues --   -0.47206  -0.46712  -0.45242  -0.44756  -0.41254
 Alpha  occ. eigenvalues --   -0.37964  -0.36933  -0.35450  -0.34895  -0.34584
 Alpha  occ. eigenvalues --   -0.32867  -0.25860
 Alpha virt. eigenvalues --   -0.24267  -0.19672  -0.15048  -0.14513  -0.12592
 Alpha virt. eigenvalues --   -0.11763  -0.10930  -0.10378  -0.09396  -0.07939
 Alpha virt. eigenvalues --   -0.07401  -0.06427  -0.06111  -0.05377  -0.05163

 Mulliken atomic charges:
              1
     1  O   -1.002359
     2  O   -0.646006
     3  O   -0.659265
     4  Ca   1.476410
     5  Ca   1.456137
     6  O   -0.782020
     7  P    0.688144
     8  O   -0.780049
     9  Ca   1.249008
 Sum of Mulliken charges=   1.00000

 Dipole moment (field-independent basis, Debye):
    X=   -13.5496    Y=   -11.3501    Z=    -0.4112  Tot=    17.6801
 Quadrupole moment (field-independent basis, Debye-Ang):
   XX=    64.0731   YY=   -73.8389   ZZ=   -85.1082
   XY=   -31.7365   XZ=     6.6479   YZ=     4.3972

 Normal termination of Gaussian 03 at Fri Jun 12 18:03:08 2015.
