 Gaussian 03, Revision E.01,
 Gaussian 03:  EM64T-G03RevE.01 11-Sep-2007

 ----------------------------------------------------
 # b3lyp/6-31+G(d,p) int=ultrafine pop=(ReadRadii,MK)
 ----------------------------------------------------

 --------------------------------------
 mol_17.29.1.pdbcc_plusQ.z58600.zip.xyz
 --------------------------------------
 Symbolic Z-matrix:
 Charge =  1 Multiplicity = 1

                         Standard orientation:
 ---------------------------------------------------------------------
 Center     Atomic     Atomic              Coordinates (Angstroms)
 Number     Number      Type              X           Y           Z
 ---------------------------------------------------------------------
    1          8             0        0.294559   -0.998361    0.970649
    2          8             0        0.533116   -1.671432   -0.391241
    3         15             0        1.015464    0.643677    1.226409
    4          8             0        2.531643    0.341241    0.982179
    5          8             0        0.570146    1.289628   -0.251671
    6         20             0        2.153241   -0.234187   -1.161381
    7         20             0       -1.648752    1.884886   -0.274201
    8          8             0       -2.746948    0.077969   -0.328001
    9         20             0       -1.739094   -1.749074    0.123009
 ---------------------------------------------------------------------

 SCF Done:  E(RB+HF-LYP) =  -2750.16692524     A.U. after    9 cycles

 The electronic state is 1-A.
 Alpha  occ. eigenvalues -- -145.52698-145.49228-145.47401 -77.26194 -19.29373
 Alpha  occ. eigenvalues --  -19.26770 -19.23288 -19.20695 -19.12336 -15.59504
 Alpha  occ. eigenvalues --  -15.56122 -15.54300 -12.72700 -12.72694 -12.72645
 Alpha  occ. eigenvalues --  -12.69377 -12.69305 -12.69180 -12.67532 -12.67503
 Alpha  occ. eigenvalues --  -12.67366  -6.71457  -4.87902  -4.87733  -4.87248
 Alpha  occ. eigenvalues --   -1.96613  -1.93368  -1.91595  -1.24643  -1.23985
 Alpha  occ. eigenvalues --   -1.23907  -1.21264  -1.20941  -1.20295  -1.20008
 Alpha  occ. eigenvalues --   -1.19361  -1.18646  -1.12943  -1.06895  -1.01990
 Alpha  occ. eigenvalues --   -0.93276  -0.86553  -0.64626  -0.55151  -0.52561
 Alpha  occ. eigenvalues --   -0.51126  -0.48256  -0.47852  -0.43071  -0.40584
 Alpha  occ. eigenvalues --   -0.39651  -0.37843  -0.35832  -0.34004  -0.32596
 Alpha  occ. eigenvalues --   -0.30755  -0.30651
 Alpha virt. eigenvalues --   -0.20591  -0.18563  -0.16510  -0.14569  -0.12505
 Alpha virt. eigenvalues --   -0.10783  -0.10581  -0.08949  -0.08725  -0.08208
 Alpha virt. eigenvalues --   -0.07327  -0.07080  -0.06624  -0.05807  -0.05408

 Mulliken atomic charges:
              1
     1  O   -0.464081
     2  O   -0.688662
     3  P    0.958129
     4  O   -0.891919
     5  O   -0.998853
     6  Ca   1.445582
     7  Ca   1.389607
     8  O   -1.186726
     9  Ca   1.436924
 Sum of Mulliken charges=   1.00000

 Dipole moment (field-independent basis, Debye):
    X=    -0.3531    Y=     0.4170    Z=    -8.0533  Tot=     8.0719
 Quadrupole moment (field-independent basis, Debye-Ang):
   XX=   -66.2309   YY=   -40.7385   ZZ=   -68.4945
   XY=    -3.5423   XZ=   -27.7611   YZ=    -2.5763

 Normal termination of Gaussian 03 at Fri Jun 12 18:11:58 2015.
