 Gaussian 03, Revision E.01,
 Gaussian 03:  EM64T-G03RevE.01 11-Sep-2007

 ----------------------------------------------------
 # b3lyp/6-31+G(d,p) int=ultrafine pop=(ReadRadii,MK)
 ----------------------------------------------------

 -------------------------------------
 mol_17.26.5.pdbc_plusQ.z58471.zip.xyz
 -------------------------------------
 Symbolic Z-matrix:
 Charge =  1 Multiplicity = 1

                         Standard orientation:
 ---------------------------------------------------------------------
 Center     Atomic     Atomic              Coordinates (Angstroms)
 Number     Number      Type              X           Y           Z
 ---------------------------------------------------------------------
    1          8             0        1.551479   -1.014683   -0.880551
    2          8             0        2.114469    0.143372   -0.063991
    3         15             0       -0.120062   -1.141348   -1.426411
    4         20             0        0.820060   -0.889147    1.514969
    5          8             0       -0.836747   -1.604602   -0.011141
    6         20             0        0.726155    1.914984   -0.337561
    7          8             0       -0.420663    1.045815    1.404039
    8         20             0       -2.162940    0.235830    0.313319
    9          8             0       -0.641608    0.415957   -1.500651
 ---------------------------------------------------------------------

 SCF Done:  E(RB+HF-LYP) =  -2750.21035767     A.U. after    8 cycles

 The electronic state is 1-A.
 Alpha  occ. eigenvalues -- -145.50972-145.50025-145.49670 -77.27047 -19.28846
 Alpha  occ. eigenvalues --  -19.25347 -19.23432 -19.23043 -19.16662 -15.57807
 Alpha  occ. eigenvalues --  -15.56850 -15.56462 -12.71017 -12.70980 -12.70931
 Alpha  occ. eigenvalues --  -12.70043 -12.70033 -12.69988 -12.69682 -12.69625
 Alpha  occ. eigenvalues --  -12.69611  -6.72142  -4.88569  -4.88429  -4.87907
 Alpha  occ. eigenvalues --   -1.95109  -1.94135  -1.93675  -1.23173  -1.22845
 Alpha  occ. eigenvalues --   -1.22456  -1.22338  -1.21692  -1.21425  -1.21268
 Alpha  occ. eigenvalues --   -1.21084  -1.20715  -1.13169  -1.07402  -1.02703
 Alpha  occ. eigenvalues --   -0.93094  -0.91571  -0.65298  -0.55838  -0.52713
 Alpha  occ. eigenvalues --   -0.51416  -0.48524  -0.47295  -0.44388  -0.42322
 Alpha  occ. eigenvalues --   -0.39789  -0.38426  -0.37055  -0.36740  -0.35861
 Alpha  occ. eigenvalues --   -0.34629  -0.32797
 Alpha virt. eigenvalues --   -0.20650  -0.18456  -0.17447  -0.13980  -0.12920
 Alpha virt. eigenvalues --   -0.11314  -0.10746  -0.09642  -0.08860  -0.08055
 Alpha virt. eigenvalues --   -0.07442  -0.06425  -0.06170  -0.05806  -0.05313

 Mulliken atomic charges:
              1
     1  O   -0.487080
     2  O   -0.621038
     3  P    1.074177
     4  Ca   1.451670
     5  O   -1.033247
     6  Ca   1.494485
     7  O   -1.263975
     8  Ca   1.421942
     9  O   -1.036933
 Sum of Mulliken charges=   1.00000

 Dipole moment (field-independent basis, Debye):
    X=    -4.9125    Y=     5.7904    Z=     5.8580  Tot=     9.5905
 Quadrupole moment (field-independent basis, Debye-Ang):
   XX=   -52.0427   YY=   -58.0552   ZZ=   -75.4494
   XY=     2.1918   XZ=     5.9725   YZ=   -22.4480

 Normal termination of Gaussian 03 at Fri Jun 12 18:02:41 2015.
