 Gaussian 03, Revision E.01,
 Gaussian 03:  EM64T-G03RevE.01 11-Sep-2007

 ----------------------------------------------------
 # b3lyp/6-31+G(d,p) int=ultrafine pop=(ReadRadii,MK)
 ----------------------------------------------------

 ----------------------------------------
 mol_17.26.2.pdbcccc_plusQ.z58388.zip.xyz
 ----------------------------------------
 Symbolic Z-matrix:
 Charge =  1 Multiplicity = 1

                         Standard orientation:
 ---------------------------------------------------------------------
 Center     Atomic     Atomic              Coordinates (Angstroms)
 Number     Number      Type              X           Y           Z
 ---------------------------------------------------------------------
    1          8             0       -0.149527   -1.574951    0.849429
    2          8             0       -1.798460    1.404177   -0.567751
    3          8             0       -0.359260    1.169218   -0.757011
    4          8             0       -2.379929    0.063046   -0.449151
    5          8             0        1.687422   -0.748649   -0.667841
    6         15             0        1.451053   -1.229830    0.899139
    7         20             0       -1.205769    0.364117    1.548819
    8         20             0        1.857829    1.526441   -0.171581
    9         20             0       -0.540448   -1.093322   -1.414661
 ---------------------------------------------------------------------

 SCF Done:  E(RB+HF-LYP) =  -2750.06392132     A.U. after   11 cycles

 The electronic state is 1-A.
 Alpha  occ. eigenvalues -- -145.53112-145.52592-145.51761 -77.25099 -19.38067
 Alpha  occ. eigenvalues --  -19.29492 -19.27977 -19.24378 -19.24229 -15.59975
 Alpha  occ. eigenvalues --  -15.59386 -15.58543 -12.73179 -12.73144 -12.73109
 Alpha  occ. eigenvalues --  -12.72621 -12.72550 -12.72535 -12.71747 -12.71744
 Alpha  occ. eigenvalues --  -12.71674  -6.70791  -4.87148  -4.86952  -4.86652
 Alpha  occ. eigenvalues --   -1.97038  -1.96449  -1.95724  -1.27118  -1.24625
 Alpha  occ. eigenvalues --   -1.24420  -1.24403  -1.24125  -1.23858  -1.23318
 Alpha  occ. eigenvalues --   -1.23250  -1.22981  -1.21130  -1.08744  -1.04998
 Alpha  occ. eigenvalues --   -1.03705  -0.89091  -0.65031  -0.60296  -0.57234
 Alpha  occ. eigenvalues --   -0.56422  -0.52196  -0.50827  -0.49494  -0.44221
 Alpha  occ. eigenvalues --   -0.43805  -0.43453  -0.41107  -0.40686  -0.39010
 Alpha  occ. eigenvalues --   -0.35993  -0.26682
 Alpha virt. eigenvalues --   -0.20879  -0.19805  -0.18643  -0.14381  -0.13193
 Alpha virt. eigenvalues --   -0.12619  -0.12010  -0.10740  -0.10438  -0.09335
 Alpha virt. eigenvalues --   -0.09060  -0.07571  -0.07468  -0.06846  -0.06330

 Mulliken atomic charges:
              1
     1  O   -0.729433
     2  O   -0.055156
     3  O   -0.632322
     4  O   -0.575280
     5  O   -0.684384
     6  P   -0.101072
     7  Ca   1.224271
     8  Ca   0.995818
     9  Ca   1.557558
 Sum of Mulliken charges=   1.00000

 Dipole moment (field-independent basis, Debye):
    X=     0.4530    Y=     2.3702    Z=    -1.5934  Tot=     2.8917
 Quadrupole moment (field-independent basis, Debye-Ang):
   XX=   -75.1588   YY=   -71.9752   ZZ=   -58.6322
   XY=    19.6456   XZ=   -13.7130   YZ=    14.4708

 Normal termination of Gaussian 03 at Fri Jun 12 18:01:08 2015.
