 Gaussian 03, Revision E.01,
 Gaussian 03:  EM64T-G03RevE.01 11-Sep-2007

 ----------------------------------------------------
 # b3lyp/6-31+G(d,p) int=ultrafine pop=(ReadRadii,MK)
 ----------------------------------------------------

 -----------------------------------------
 mol_16.4.11.pdbc_plusQ.out.z51562.zip.xyz
 -----------------------------------------
 Symbolic Z-matrix:
 Charge =  1 Multiplicity = 1

                         Standard orientation:
 ---------------------------------------------------------------------
 Center     Atomic     Atomic              Coordinates (Angstroms)
 Number     Number      Type              X           Y           Z
 ---------------------------------------------------------------------
    1          8             0        1.441664   -1.274106   -0.000081
    2         15             0        2.320011   -0.001013   -0.000131
    3         20             0       -0.760595    1.858338   -0.000231
    4          8             0        1.443087    1.272694    0.000449
    5          8             0       -1.713889    0.000865   -0.785861
    6          8             0       -1.713159    0.000885    0.786519
    7         20             0       -0.762494   -1.857712   -0.000081
 ---------------------------------------------------------------------

 SCF Done:  E(RB+HF-LYP) =  -1997.33372460     A.U. after    6 cycles

 The electronic state is 1-A.
 Alpha  occ. eigenvalues -- -145.53246-145.53245 -77.30162 -19.27956 -19.27949
 Alpha  occ. eigenvalues --  -19.25604 -19.25572 -15.60093 -15.60092 -12.73308
 Alpha  occ. eigenvalues --  -12.73307 -12.73290 -12.73289 -12.73208 -12.73206
 Alpha  occ. eigenvalues --   -6.75644  -4.92084  -4.91868  -4.91424  -1.97236
 Alpha  occ. eigenvalues --   -1.97209  -1.25765  -1.24806  -1.24792  -1.24725
 Alpha  occ. eigenvalues --   -1.24725  -1.24302  -1.13927  -1.08556  -1.08251
 Alpha  occ. eigenvalues --   -0.89521  -0.67706  -0.57283  -0.52825  -0.52602
 Alpha  occ. eigenvalues --   -0.48994  -0.47945  -0.46121  -0.45763  -0.43901
 Alpha  occ. eigenvalues --   -0.40702  -0.37190  -0.34166
 Alpha virt. eigenvalues --   -0.20456  -0.19853  -0.19631  -0.14481  -0.11367
 Alpha virt. eigenvalues --   -0.11280  -0.10319  -0.09666  -0.09043  -0.07375
 Alpha virt. eigenvalues --   -0.07215  -0.06432  -0.05962  -0.05215  -0.04858

 Mulliken atomic charges:
              1
     1  O   -0.709943
     2  P    0.668724
     3  Ca   1.543975
     4  O   -0.709667
     5  O   -0.668282
     6  O   -0.668812
     7  Ca   1.544004
 Sum of Mulliken charges=   1.00000

 Dipole moment (field-independent basis, Debye):
    X=    -3.1390    Y=     0.0017    Z=    -0.0075  Tot=     3.1390
 Quadrupole moment (field-independent basis, Debye-Ang):
   XX=   -66.5080   YY=    -8.8888   ZZ=   -58.2530
   XY=     0.0325   XZ=     0.0073   YZ=    -0.0049

 Normal termination of Gaussian 03 at Fri Jun 12 17:46:17 2015.
