 Gaussian 03, Revision E.01,
 Gaussian 03:  EM64T-G03RevE.01 11-Sep-2007

 ----------------------------------------------------
 # b3lyp/6-31+G(d,p) int=ultrafine pop=(ReadRadii,MK)
 ----------------------------------------------------

 ---------------------------------------
 mol_17.26.34.pdbcc_plusQ.z58446.zip.xyz
 ---------------------------------------
 Symbolic Z-matrix:
 Charge =  1 Multiplicity = 1

                         Standard orientation:
 ---------------------------------------------------------------------
 Center     Atomic     Atomic              Coordinates (Angstroms)
 Number     Number      Type              X           Y           Z
 ---------------------------------------------------------------------
    1          8             0       -2.596479    0.164699   -0.000130
    2          8             0        1.943600   -0.251586   -1.195930
    3          8             0        2.814949   -0.476059    0.001030
    4          8             0        1.941720   -0.250546    1.196390
    5         20             0        0.921584   -1.939323    0.000190
    6         15             0       -2.727094   -1.370010   -0.000270
    7          8             0       -1.333186   -2.039485   -0.000410
    8         20             0        1.847367    1.772154   -0.000650
    9         20             0       -1.831871    2.335867    0.000280
 ---------------------------------------------------------------------

 SCF Done:  E(RB+HF-LYP) =  -2750.06910436     A.U. after   10 cycles

 The electronic state is 1-A.
 Alpha  occ. eigenvalues -- -145.52271-145.51796-145.50945 -77.29696 -19.37651
 Alpha  occ. eigenvalues --  -19.28175 -19.28174 -19.27632 -19.27345 -15.59073
 Alpha  occ. eigenvalues --  -15.58773 -15.57880 -12.72309 -12.72280 -12.72178
 Alpha  occ. eigenvalues --  -12.71970 -12.71952 -12.71846 -12.71092 -12.71055
 Alpha  occ. eigenvalues --  -12.70978  -6.75173  -4.91617  -4.91400  -4.90950
 Alpha  occ. eigenvalues --   -1.96198  -1.95881  -1.95036  -1.27030  -1.23878
 Alpha  occ. eigenvalues --   -1.23712  -1.23384  -1.23306  -1.23028  -1.22823
 Alpha  occ. eigenvalues --   -1.22505  -1.22426  -1.19084  -1.13494  -1.08174
 Alpha  occ. eigenvalues --   -1.03923  -0.88832  -0.67510  -0.57929  -0.57309
 Alpha  occ. eigenvalues --   -0.56315  -0.55911  -0.52313  -0.52173  -0.45417
 Alpha  occ. eigenvalues --   -0.44257  -0.43614  -0.42155  -0.40194  -0.39530
 Alpha  occ. eigenvalues --   -0.36814  -0.27627
 Alpha virt. eigenvalues --   -0.19448  -0.18923  -0.17829  -0.14937  -0.14690
 Alpha virt. eigenvalues --   -0.13313  -0.12236  -0.11266  -0.10012  -0.09134
 Alpha virt. eigenvalues --   -0.07994  -0.07830  -0.07778  -0.06845  -0.06779

 Mulliken atomic charges:
              1
     1  O   -0.626660
     2  O   -0.605916
     3  O   -0.047231
     4  O   -0.605863
     5  Ca   1.420669
     6  P    0.684949
     7  O   -0.709895
     8  Ca   0.861611
     9  Ca   0.628335
 Sum of Mulliken charges=   1.00000

 Dipole moment (field-independent basis, Debye):
    X=     0.2373    Y=     1.6171    Z=    -0.0003  Tot=     1.6344
 Quadrupole moment (field-independent basis, Debye-Ang):
   XX=   -65.9644   YY=   -43.3072   ZZ=   -89.4180
   XY=    -9.0853   XZ=    -0.0077   YZ=    -0.0069

 Normal termination of Gaussian 03 at Fri Jun 12 18:00:47 2015.
