 Gaussian 03, Revision E.01,
 Gaussian 03:  EM64T-G03RevE.01 11-Sep-2007

 ----------------------------------------------------
 # b3lyp/6-31+G(d,p) int=ultrafine pop=(ReadRadii,MK)
 ----------------------------------------------------

 --------------------------------------
 mol_17.27.6.pdbcc_plusQ.z58527.zip.xyz
 --------------------------------------
 Symbolic Z-matrix:
 Charge =  1 Multiplicity = 1

                         Standard orientation:
 ---------------------------------------------------------------------
 Center     Atomic     Atomic              Coordinates (Angstroms)
 Number     Number      Type              X           Y           Z
 ---------------------------------------------------------------------
    1          8             0       -3.741710   -0.002517    0.805679
    2          8             0       -3.741890   -0.002507   -0.805471
    3         15             0       -2.347570   -0.001359   -0.000021
    4          8             0       -1.538019    1.280950    0.000189
    5         20             0        0.655391    1.917978   -0.000111
    6          8             0        1.755640    0.003337    0.000129
    7         20             0        3.966020   -0.001325    0.000019
    8         20             0        0.659768   -1.914592    0.000039
    9          8             0       -1.535272   -1.281870   -0.000361
 ---------------------------------------------------------------------

 SCF Done:  E(RB+HF-LYP) =  -2750.11098970     A.U. after   11 cycles

 The electronic state is 1-A.
 Alpha  occ. eigenvalues -- -145.52068-145.52054-145.50693 -77.38291 -19.35448
 Alpha  occ. eigenvalues --  -19.35430 -19.28763 -19.28718 -19.20084 -15.58992
 Alpha  occ. eigenvalues --  -15.58979 -15.57700 -12.72230 -12.72217 -12.72150
 Alpha  occ. eigenvalues --  -12.72137 -12.72082 -12.72069 -12.70891 -12.70889
 Alpha  occ. eigenvalues --  -12.70762  -6.82864  -4.99317  -4.99223  -4.99051
 Alpha  occ. eigenvalues --   -1.96185  -1.96166  -1.94862  -1.27201  -1.23923
 Alpha  occ. eigenvalues --   -1.23901  -1.23845  -1.23717  -1.23591  -1.23084
 Alpha  occ. eigenvalues --   -1.22362  -1.22348  -1.21887  -1.15022  -1.10737
 Alpha  occ. eigenvalues --   -1.02344  -0.95138  -0.70397  -0.60889  -0.60721
 Alpha  occ. eigenvalues --   -0.56762  -0.56660  -0.52909  -0.50876  -0.47793
 Alpha  occ. eigenvalues --   -0.46932  -0.44349  -0.41333  -0.41145  -0.40858
 Alpha  occ. eigenvalues --   -0.38900  -0.26620
 Alpha virt. eigenvalues --   -0.21598  -0.20968  -0.20325  -0.15127  -0.14707
 Alpha virt. eigenvalues --   -0.13667  -0.12831  -0.12647  -0.12116  -0.08942
 Alpha virt. eigenvalues --   -0.08721  -0.08263  -0.07884  -0.07546  -0.07524

 Mulliken atomic charges:
              1
     1  O   -0.388243
     2  O   -0.388718
     3  P    1.691554
     4  O   -0.861977
     5  Ca   1.092923
     6  O   -1.102243
     7  Ca   0.730307
     8  Ca   1.088517
     9  O   -0.862119
 Sum of Mulliken charges=   1.00000

 Dipole moment (field-independent basis, Debye):
    X=    10.9221    Y=     0.0516    Z=     0.0018  Tot=    10.9223
 Quadrupole moment (field-independent basis, Debye-Ang):
   XX=   -70.3560   YY=   -56.2782   ZZ=   -85.0657
   XY=     0.0429   XZ=    -0.0058   YZ=    -0.0034

 Normal termination of Gaussian 03 at Fri Jun 12 18:08:31 2015.
