 Gaussian 03, Revision E.01,
 Gaussian 03:  EM64T-G03RevE.01 11-Sep-2007

 ----------------------------------------------------
 # b3lyp/6-31+G(d,p) int=ultrafine pop=(ReadRadii,MK)
 ----------------------------------------------------

 ----------------------------------------
 mol_17.28.46.pdbccc_plusQ.z58570.zip.xyz
 ----------------------------------------
 Symbolic Z-matrix:
 Charge =  1 Multiplicity = 1

                         Standard orientation:
 ---------------------------------------------------------------------
 Center     Atomic     Atomic              Coordinates (Angstroms)
 Number     Number      Type              X           Y           Z
 ---------------------------------------------------------------------
    1          8             0        0.706396    1.033507    1.028030
    2          8             0        0.704502   -1.407473    0.380270
    3         15             0        1.446120   -0.000328   -0.001220
    4          8             0        2.926190   -0.001656   -0.003310
    5         20             0       -0.780468   -1.388954   -1.381780
    6          8             0       -1.915880    0.001092    0.001830
    7          8             0        0.702892    0.373527   -1.409410
    8         20             0       -0.777619    1.892686   -0.510660
    9         20             0       -0.776143   -0.503084    1.894390
 ---------------------------------------------------------------------

 SCF Done:  E(RB+HF-LYP) =  -2750.33241571     A.U. after    8 cycles

 The electronic state is 1-A.
 Alpha  occ. eigenvalues -- -145.51540-145.51533-145.51522 -77.29642 -19.22142
 Alpha  occ. eigenvalues --  -19.22135 -19.22135 -19.17346 -19.16956 -15.58328
 Alpha  occ. eigenvalues --  -15.58323 -15.58313 -12.71535 -12.71531 -12.71520
 Alpha  occ. eigenvalues --  -12.71504 -12.71499 -12.71489 -12.71464 -12.71460
 Alpha  occ. eigenvalues --  -12.71450  -6.73987  -4.90400  -4.90399  -4.90176
 Alpha  occ. eigenvalues --   -1.95604  -1.95529  -1.95522  -1.24173  -1.23495
 Alpha  occ. eigenvalues --   -1.23491  -1.23031  -1.22979  -1.22847  -1.22843
 Alpha  occ. eigenvalues --   -1.22399  -1.22392  -1.10626  -1.02387  -1.02382
 Alpha  occ. eigenvalues --   -1.00880  -0.92256  -0.61914  -0.53113  -0.53112
 Alpha  occ. eigenvalues --   -0.49404  -0.45144  -0.45141  -0.42197  -0.40250
 Alpha  occ. eigenvalues --   -0.40246  -0.39409  -0.37704  -0.37702  -0.34996
 Alpha  occ. eigenvalues --   -0.34622  -0.34620
 Alpha virt. eigenvalues --   -0.21580  -0.19011  -0.19006  -0.13408  -0.13405
 Alpha virt. eigenvalues --   -0.11688  -0.09949  -0.09946  -0.09243  -0.09105
 Alpha virt. eigenvalues --   -0.07005  -0.06504  -0.06503  -0.04959  -0.04853

 Mulliken atomic charges:
              1
     1  O   -1.127732
     2  O   -1.128165
     3  P    1.864427
     4  O   -0.646584
     5  Ca   1.482110
     6  O   -1.279828
     7  O   -1.128126
     8  Ca   1.482114
     9  Ca   1.481783
 Sum of Mulliken charges=   1.00000

 Dipole moment (field-independent basis, Debye):
    X=   -13.7230    Y=     0.0041    Z=     0.0083  Tot=    13.7230
 Quadrupole moment (field-independent basis, Debye-Ang):
   XX=  -104.6729   YY=   -40.3913   ZZ=   -40.4344
   XY=     0.0420   XZ=     0.0733   YZ=    -0.0031

 Normal termination of Gaussian 03 at Fri Jun 12 18:10:16 2015.
