 Gaussian 03, Revision E.01,
 Gaussian 03:  EM64T-G03RevE.01 11-Sep-2007

 ----------------------------------------------------
 # b3lyp/6-31+G(d,p) int=ultrafine pop=(ReadRadii,MK)
 ----------------------------------------------------

 -----------------------------------------
 mol_17.27.45.pdbcccc_plusQ.z58511.zip.xyz
 -----------------------------------------
 Symbolic Z-matrix:
 Charge =  1 Multiplicity = 1

                         Standard orientation:
 ---------------------------------------------------------------------
 Center     Atomic     Atomic              Coordinates (Angstroms)
 Number     Number      Type              X           Y           Z
 ---------------------------------------------------------------------
    1          8             0       -0.866956    2.313530   -0.002311
    2         15             0        3.158569   -0.987725   -0.000661
    3         20             0        1.226154    2.320257    0.000809
    4          8             0        1.957121    0.087346    0.000429
    5         20             0        0.339038   -1.782942   -0.001041
    6          8             0       -1.481131   -1.047229   -1.201051
    7          8             0       -2.053282   -1.727768    0.004009
    8          8             0       -1.476731   -1.042789    1.202939
    9         20             0       -2.365728    0.770242   -0.000881
 ---------------------------------------------------------------------

 SCF Done:  E(RB+HF-LYP) =  -2750.00572177     A.U. after    9 cycles

 The electronic state is 1-A.
 Alpha  occ. eigenvalues -- -145.51939-145.50682-145.46430 -77.26358 -19.36119
 Alpha  occ. eigenvalues --  -19.31674 -19.26544 -19.26538 -19.13769 -15.58783
 Alpha  occ. eigenvalues --  -15.57517 -15.53293 -12.72033 -12.71980 -12.71846
 Alpha  occ. eigenvalues --  -12.70741 -12.70729 -12.70619 -12.66513 -12.66501
 Alpha  occ. eigenvalues --  -12.66377  -6.72695  -4.89462  -4.88937  -4.87935
 Alpha  occ. eigenvalues --   -1.95919  -1.94693  -1.90581  -1.25078  -1.23720
 Alpha  occ. eigenvalues --   -1.23590  -1.22782  -1.22424  -1.22283  -1.19910
 Alpha  occ. eigenvalues --   -1.18225  -1.18007  -1.16262  -1.12505  -1.02325
 Alpha  occ. eigenvalues --   -0.87907  -0.87093  -0.69268  -0.56374  -0.54782
 Alpha  occ. eigenvalues --   -0.54236  -0.52921  -0.51848  -0.51436  -0.42536
 Alpha  occ. eigenvalues --   -0.40388  -0.38158  -0.34942  -0.34145  -0.32114
 Alpha  occ. eigenvalues --   -0.32016  -0.31527
 Alpha virt. eigenvalues --   -0.25940  -0.20482  -0.16642  -0.15029  -0.13102
 Alpha virt. eigenvalues --   -0.12645  -0.12033  -0.10726  -0.10202  -0.09024
 Alpha virt. eigenvalues --   -0.08311  -0.07326  -0.06601  -0.06377  -0.06206

 Mulliken atomic charges:
              1
     1  O   -1.218440
     2  P    0.062478
     3  Ca   1.464616
     4  O   -0.703715
     5  Ca   1.318655
     6  O   -0.634216
     7  O   -0.077853
     8  O   -0.634082
     9  Ca   1.422557
 Sum of Mulliken charges=   1.00000

 Dipole moment (field-independent basis, Debye):
    X=     4.3831    Y=     3.0758    Z=     0.0014  Tot=     5.3547
 Quadrupole moment (field-independent basis, Debye-Ang):
   XX=   -50.7374   YY=   -54.7606   ZZ=   -82.1296
   XY=     5.2826   XZ=     0.0015   YZ=     0.0440

 Normal termination of Gaussian 03 at Fri Jun 12 18:06:45 2015.
