 Gaussian 03, Revision E.01,
 Gaussian 03:  EM64T-G03RevE.01 11-Sep-2007

 ----------------------------------------------------
 # b3lyp/6-31+G(d,p) int=ultrafine pop=(ReadRadii,MK)
 ----------------------------------------------------

 -----------------------------------------
 mol_17.26.20.pdbcccc_plusQ.z58380.zip.xyz
 -----------------------------------------
 Symbolic Z-matrix:
 Charge =  1 Multiplicity = 1

                         Standard orientation:
 ---------------------------------------------------------------------
 Center     Atomic     Atomic              Coordinates (Angstroms)
 Number     Number      Type              X           Y           Z
 ---------------------------------------------------------------------
    1          8             0        1.687450   -1.044099   -0.029669
    2          8             0        3.588510    0.534712    0.032611
    3          8             0       -2.779660   -1.057900    0.791761
    4          8             0       -2.795430   -1.052470   -0.777179
    5         20             0       -2.870081    1.038090    0.015411
    6          8             0       -0.624181    1.106020   -0.006389
    7         20             0        1.482059    1.569931   -0.019109
    8         15             0        3.249460   -0.966528    0.018661
    9         20             0       -0.679750   -1.277630   -0.014749
 ---------------------------------------------------------------------

 SCF Done:  E(RB+HF-LYP) =  -2750.21057900     A.U. after    9 cycles

 The electronic state is 1-A.
 Alpha  occ. eigenvalues -- -145.52565-145.47912-145.45929 -77.31431 -19.29693
 Alpha  occ. eigenvalues --  -19.28907 -19.20258 -19.20253 -19.17107 -15.59465
 Alpha  occ. eigenvalues --  -15.54780 -15.52792 -12.72730 -12.72687 -12.72485
 Alpha  occ. eigenvalues --  -12.67991 -12.67960 -12.67889 -12.66029 -12.65991
 Alpha  occ. eigenvalues --  -12.65877  -6.77031  -4.93461  -4.93236  -4.92817
 Alpha  occ. eigenvalues --   -1.96698  -1.92085  -1.90160  -1.24625  -1.24619
 Alpha  occ. eigenvalues --   -1.23586  -1.20510  -1.19694  -1.19282  -1.18008
 Alpha  occ. eigenvalues --   -1.17959  -1.17613  -1.15367  -1.09608  -1.02807
 Alpha  occ. eigenvalues --   -0.91885  -0.84035  -0.68623  -0.57627  -0.54916
 Alpha  occ. eigenvalues --   -0.54232  -0.46670  -0.45219  -0.43701  -0.42873
 Alpha  occ. eigenvalues --   -0.41969  -0.41274  -0.37538  -0.36633  -0.35926
 Alpha  occ. eigenvalues --   -0.30799  -0.29154
 Alpha virt. eigenvalues --   -0.21347  -0.20127  -0.17700  -0.14550  -0.13032
 Alpha virt. eigenvalues --   -0.11138  -0.10816  -0.10364  -0.09100  -0.08470
 Alpha virt. eigenvalues --   -0.07856  -0.07110  -0.06764  -0.06250  -0.05627

 Mulliken atomic charges:
              1
     1  O   -0.738851
     2  O   -0.655909
     3  O   -0.654437
     4  O   -0.653977
     5  Ca   1.457074
     6  O   -1.322856
     7  Ca   1.495917
     8  P    0.679845
     9  Ca   1.393196
 Sum of Mulliken charges=   1.00000

 Dipole moment (field-independent basis, Debye):
    X=     1.5412    Y=     9.0401    Z=    -0.1037  Tot=     9.1712
 Quadrupole moment (field-independent basis, Debye-Ang):
   XX=   -64.0534   YY=   -51.7260   ZZ=   -77.1281
   XY=   -21.8383   XZ=    -0.5392   YZ=    -0.0351

 Normal termination of Gaussian 03 at Fri Jun 12 18:00:01 2015.
