 Gaussian 03, Revision E.01,
 Gaussian 03:  EM64T-G03RevE.01 11-Sep-2007

 ----------------------------------------------------
 # b3lyp/6-31+G(d,p) int=ultrafine pop=(ReadRadii,MK)
 ----------------------------------------------------

 --------------------------------------
 mol_17.28.35.pdbc_plusQ.z58559.zip.xyz
 --------------------------------------
 Symbolic Z-matrix:
 Charge =  1 Multiplicity = 1

                         Standard orientation:
 ---------------------------------------------------------------------
 Center     Atomic     Atomic              Coordinates (Angstroms)
 Number     Number      Type              X           Y           Z
 ---------------------------------------------------------------------
    1          8             0        1.725859   -1.491492    0.000130
    2          8             0       -0.564758    1.106050   -0.000120
    3         20             0       -2.818328    0.993573    0.000010
    4          8             0       -2.712870   -1.088347    0.784970
    5          8             0       -2.712950   -1.088347   -0.784880
    6         20             0       -0.598001   -1.308280   -0.000070
    7         15             0        3.194380   -1.029164    0.000030
    8         20             0        1.432383    1.902548    0.000070
    9          8             0        3.235121    0.522216   -0.000180
 ---------------------------------------------------------------------

 SCF Done:  E(RB+HF-LYP) =  -2750.20951960     A.U. after    8 cycles

 The electronic state is 1-A.
 Alpha  occ. eigenvalues -- -145.53396-145.48024-145.44978 -77.30022 -19.27965
 Alpha  occ. eigenvalues --  -19.27481 -19.19914 -19.19909 -19.17881 -15.60298
 Alpha  occ. eigenvalues --  -15.54890 -15.51856 -12.73554 -12.73507 -12.73334
 Alpha  occ. eigenvalues --  -12.68098 -12.68071 -12.67999 -12.65098 -12.65061
 Alpha  occ. eigenvalues --  -12.64931  -6.75541  -4.91985  -4.91757  -4.91321
 Alpha  occ. eigenvalues --   -1.97519  -1.92194  -1.89239  -1.25377  -1.25257
 Alpha  occ. eigenvalues --   -1.24383  -1.20509  -1.19792  -1.19394  -1.17218
 Alpha  occ. eigenvalues --   -1.17081  -1.16763  -1.13769  -1.08258  -1.02445
 Alpha  occ. eigenvalues --   -0.92462  -0.83749  -0.67357  -0.56792  -0.52841
 Alpha  occ. eigenvalues --   -0.52587  -0.45478  -0.43601  -0.43400  -0.41978
 Alpha  occ. eigenvalues --   -0.41118  -0.40749  -0.37991  -0.37313  -0.36419
 Alpha  occ. eigenvalues --   -0.30524  -0.28911
 Alpha virt. eigenvalues --   -0.21329  -0.19764  -0.18064  -0.13533  -0.13442
 Alpha virt. eigenvalues --   -0.11691  -0.10903  -0.10463  -0.08649  -0.08278
 Alpha virt. eigenvalues --   -0.07168  -0.06873  -0.06457  -0.06203  -0.05657

 Mulliken atomic charges:
              1
     1  O   -0.677386
     2  O   -1.348044
     3  Ca   1.443465
     4  O   -0.651206
     5  O   -0.651194
     6  Ca   1.406403
     7  P    0.665895
     8  Ca   1.527518
     9  O   -0.715451
 Sum of Mulliken charges=   1.00000

 Dipole moment (field-independent basis, Debye):
    X=     1.2577    Y=    12.1937    Z=     0.0006  Tot=    12.2584
 Quadrupole moment (field-independent basis, Debye-Ang):
   XX=   -63.3331   YY=   -46.1921   ZZ=   -77.2339
   XY=   -15.9556   XZ=     0.0022   YZ=     0.0043

 Normal termination of Gaussian 03 at Fri Jun 12 18:09:46 2015.
