 Gaussian 03, Revision E.01,
 Gaussian 03:  EM64T-G03RevE.01 11-Sep-2007

 ----------------------------------------------------
 # b3lyp/6-31+G(d,p) int=ultrafine pop=(ReadRadii,MK)
 ----------------------------------------------------

 ---------------------------------------
 mol_17.25.49.pdbcc_plusQ.z58354.zip.xyz
 ---------------------------------------
 Symbolic Z-matrix:
 Charge =  1 Multiplicity = 1

                         Standard orientation:
 ---------------------------------------------------------------------
 Center     Atomic     Atomic              Coordinates (Angstroms)
 Number     Number      Type              X           Y           Z
 ---------------------------------------------------------------------
    1          8             0        2.460130    1.217009    0.799390
    2          8             0        2.488950    1.324869   -0.729830
    3         15             0        3.440460    0.000589    0.000650
    4          8             0        2.489539   -1.324861    0.730110
    5          8             0        2.462559   -1.216951   -0.799150
    6         20             0        0.490130   -0.001170   -0.000950
    7         20             0       -3.168681   -1.713728    0.001540
    8          8             0       -1.738140   -0.000279   -0.000540
    9         20             0       -3.167009    1.714542   -0.001070
 ---------------------------------------------------------------------

 SCF Done:  E(RB+HF-LYP) =  -2749.95241809     A.U. after   11 cycles

 The electronic state is 1-A.
 Alpha  occ. eigenvalues -- -145.52612-145.52610-145.50088 -77.33678 -19.34213
 Alpha  occ. eigenvalues --  -19.34207 -19.33725 -19.33718 -19.20475 -15.59602
 Alpha  occ. eigenvalues --  -15.59599 -15.56924 -12.72793 -12.72791 -12.72790
 Alpha  occ. eigenvalues --  -12.72789 -12.72670 -12.72667 -12.70166 -12.70162
 Alpha  occ. eigenvalues --  -12.69985  -6.78549  -4.94945  -4.94667  -4.94430
 Alpha  occ. eigenvalues --   -1.96756  -1.96712  -1.94182  -1.27257  -1.24416
 Alpha  occ. eigenvalues --   -1.24249  -1.24199  -1.24122  -1.24004  -1.23499
 Alpha  occ. eigenvalues --   -1.23439  -1.21920  -1.20635  -1.20302  -0.99630
 Alpha  occ. eigenvalues --   -0.96550  -0.95397  -0.74206  -0.61566  -0.59284
 Alpha  occ. eigenvalues --   -0.58075  -0.55781  -0.51654  -0.51354  -0.43653
 Alpha  occ. eigenvalues --   -0.43036  -0.42829  -0.41532  -0.41066  -0.39097
 Alpha  occ. eigenvalues --   -0.38604  -0.28118
 Alpha virt. eigenvalues --   -0.21940  -0.18270  -0.17604  -0.15746  -0.15281
 Alpha virt. eigenvalues --   -0.14891  -0.13850  -0.13115  -0.11493  -0.10829
 Alpha virt. eigenvalues --   -0.09802  -0.09128  -0.08670  -0.08033  -0.06648

 Mulliken atomic charges:
              1
     1  O   -0.379466
     2  O   -0.386292
     3  P    0.832018
     4  O   -0.386362
     5  O   -0.379284
     6  Ca   1.543702
     7  Ca   0.627129
     8  O   -1.098655
     9  Ca   0.627210
 Sum of Mulliken charges=   1.00000

 Dipole moment (field-independent basis, Debye):
    X=   -12.3762    Y=    -0.0040    Z=    -0.0026  Tot=    12.3762
 Quadrupole moment (field-independent basis, Debye-Ang):
   XX=   -47.8248   YY=   -65.4176   ZZ=   -87.2808
   XY=     0.0142   XZ=    -0.0054   YZ=    -0.0403

 Normal termination of Gaussian 03 at Fri Jun 12 17:58:54 2015.
