 Gaussian 03, Revision E.01,
 Gaussian 03:  EM64T-G03RevE.01 11-Sep-2007

 ----------------------------------------------------
 # b3lyp/6-31+G(d,p) int=ultrafine pop=(ReadRadii,MK)
 ----------------------------------------------------

 --------------------------------------
 mol_17.22.58.pdbc_plusQ.z58208.zip.xyz
 --------------------------------------
 Symbolic Z-matrix:
 Charge =  1 Multiplicity = 1

                         Standard orientation:
 ---------------------------------------------------------------------
 Center     Atomic     Atomic              Coordinates (Angstroms)
 Number     Number      Type              X           Y           Z
 ---------------------------------------------------------------------
    1         20             0       -1.822730    2.400929   -0.002211
    2          8             0       -1.385590   -2.180713    0.000299
    3         15             0       -2.683786   -1.343187    0.006069
    4          8             0       -2.339049    0.160511   -0.006281
    5         20             0        0.869951   -1.949422   -0.004401
    6          8             0        1.889909   -0.260397    1.196019
    7          8             0        1.895519   -0.256857   -1.195121
    8          8             0        2.763538   -0.491171    0.002159
    9         20             0        1.835887    1.767333    0.003229
 ---------------------------------------------------------------------

 SCF Done:  E(RB+HF-LYP) =  -2750.06854299     A.U. after   11 cycles

 The electronic state is 1-A.
 Alpha  occ. eigenvalues -- -145.52139-145.51762-145.51187 -77.29847 -19.37610
 Alpha  occ. eigenvalues --  -19.28142 -19.28137 -19.27615 -19.27564 -15.58952
 Alpha  occ. eigenvalues --  -15.58728 -15.58107 -12.72191 -12.72158 -12.72051
 Alpha  occ. eigenvalues --  -12.71923 -12.71905 -12.71806 -12.71322 -12.71284
 Alpha  occ. eigenvalues --  -12.71207  -6.75351  -4.91796  -4.91573  -4.91128
 Alpha  occ. eigenvalues --   -1.96085  -1.95839  -1.95235  -1.27005  -1.23788
 Alpha  occ. eigenvalues --   -1.23608  -1.23329  -1.23268  -1.23013  -1.22880
 Alpha  occ. eigenvalues --   -1.22692  -1.22616  -1.19097  -1.13679  -1.08250
 Alpha  occ. eigenvalues --   -1.03872  -0.88792  -0.67563  -0.57891  -0.57301
 Alpha  occ. eigenvalues --   -0.56294  -0.55884  -0.52582  -0.52331  -0.45474
 Alpha  occ. eigenvalues --   -0.44226  -0.43750  -0.42125  -0.40361  -0.39460
 Alpha  occ. eigenvalues --   -0.36812  -0.27610
 Alpha virt. eigenvalues --   -0.19633  -0.19048  -0.17633  -0.14929  -0.14594
 Alpha virt. eigenvalues --   -0.13290  -0.12318  -0.11256  -0.10036  -0.09105
 Alpha virt. eigenvalues --   -0.08163  -0.07828  -0.07737  -0.06860  -0.06792

 Mulliken atomic charges:
              1
     1  Ca   0.614576
     2  O   -0.703475
     3  P    0.680254
     4  O   -0.619079
     5  Ca   1.419824
     6  O   -0.604610
     7  O   -0.604688
     8  O   -0.047460
     9  Ca   0.864658
 Sum of Mulliken charges=   1.00000

 Dipole moment (field-independent basis, Debye):
    X=    -0.0640    Y=     1.8302    Z=    -0.0121  Tot=     1.8313
 Quadrupole moment (field-independent basis, Debye-Ang):
   XX=   -64.2792   YY=   -44.9758   ZZ=   -89.4929
   XY=    -9.7698   XZ=     0.0161   YZ=     0.0799

 Normal termination of Gaussian 03 at Fri Jun 12 17:51:28 2015.
