 Gaussian 03, Revision E.01,
 Gaussian 03:  EM64T-G03RevE.01 11-Sep-2007

 ----------------------------------------------------
 # b3lyp/6-31+G(d,p) int=ultrafine pop=(ReadRadii,MK)
 ----------------------------------------------------

 -----------------------------------------
 mol_17.23.28.pdbcccc_plusQ.z58229.zip.xyz
 -----------------------------------------
 Symbolic Z-matrix:
 Charge =  1 Multiplicity = 1

                         Standard orientation:
 ---------------------------------------------------------------------
 Center     Atomic     Atomic              Coordinates (Angstroms)
 Number     Number      Type              X           Y           Z
 ---------------------------------------------------------------------
    1          8             0        0.213335   -2.650573    0.000000
    2         15             0       -0.691573   -1.419452    0.000000
    3          8             0       -2.263954   -1.786860    0.000000
    4          8             0       -2.923652   -0.467839    0.000000
    5          8             0       -0.051198    2.700758    0.000000
    6          8             0        0.000000    1.149187    0.000000
    7         20             0       -2.128409    1.653510    0.000000
    8         20             0        2.110511    1.841565    0.000000
    9         20             0        2.546766   -2.008356    0.000000
 ---------------------------------------------------------------------

 SCF Done:  E(RB+HF-LYP) =  -2749.95251422     A.U. after   12 cycles

 The electronic state is 1-A'.
 Alpha  occ. eigenvalues -- -145.53028-145.51868-145.51098 -77.29819 -19.34261
 Alpha  occ. eigenvalues --  -19.28668 -19.26257 -19.25348 -19.24954 -15.59999
 Alpha  occ. eigenvalues --  -15.58675 -15.58026 -12.73188 -12.73179 -12.73084
 Alpha  occ. eigenvalues --  -12.71944 -12.71853 -12.71768 -12.71264 -12.71201
 Alpha  occ. eigenvalues --  -12.71101  -6.75561  -4.91871  -4.91806  -4.91370
 Alpha  occ. eigenvalues --   -1.97010  -1.95768  -1.95152  -1.24457  -1.24448
 Alpha  occ. eigenvalues --   -1.24057  -1.23969  -1.23579  -1.23185  -1.22839
 Alpha  occ. eigenvalues --   -1.22643  -1.22276  -1.20065  -1.12146  -1.08437
 Alpha  occ. eigenvalues --   -0.94642  -0.88757  -0.68469  -0.57753  -0.56373
 Alpha  occ. eigenvalues --   -0.54079  -0.50857  -0.48511  -0.48228  -0.48205
 Alpha  occ. eigenvalues --   -0.45933  -0.39820  -0.37756  -0.36557  -0.35711
 Alpha  occ. eigenvalues --   -0.32964  -0.27693
 Alpha virt. eigenvalues --   -0.20431  -0.20036  -0.18773  -0.15067  -0.14693
 Alpha virt. eigenvalues --   -0.12970  -0.11800  -0.11305  -0.10676  -0.09719
 Alpha virt. eigenvalues --   -0.09466  -0.09029  -0.07677  -0.07166  -0.06633

 Mulliken atomic charges:
              1
     1  O   -0.600811
     2  P    0.771899
     3  O   -0.204924
     4  O   -0.572337
     5  O   -0.737005
     6  O   -0.574039
     7  Ca   1.445280
     8  Ca   0.907083
     9  Ca   0.564853
 Sum of Mulliken charges=   1.00000

 Dipole moment (field-independent basis, Debye):
    X=     4.8206    Y=     5.9898    Z=     0.0000  Tot=     7.6887
 Quadrupole moment (field-independent basis, Debye-Ang):
   XX=   -48.9364   YY=   -56.7407   ZZ=   -82.3854
   XY=   -28.2431   XZ=     0.0000   YZ=     0.0000

 Normal termination of Gaussian 03 at Fri Jun 12 17:52:50 2015.
