 Gaussian 03, Revision E.01,
 Gaussian 03:  EM64T-G03RevE.01 11-Sep-2007

 ----------------------------------------------------
 # b3lyp/6-31+G(d,p) int=ultrafine pop=(ReadRadii,MK)
 ----------------------------------------------------

 --------------------------------------
 mol_17.22.46.pdbc_plusQ.z58196.zip.xyz
 --------------------------------------
 Symbolic Z-matrix:
 Charge =  1 Multiplicity = 1

                         Standard orientation:
 ---------------------------------------------------------------------
 Center     Atomic     Atomic              Coordinates (Angstroms)
 Number     Number      Type              X           Y           Z
 ---------------------------------------------------------------------
    1          8             0       -3.461186    3.109993    0.000000
    2          8             0       -4.236003    1.729152    0.000000
    3          8             0       -2.339070    0.189765    0.000000
    4         15             0       -2.599023    1.718565    0.000000
    5          8             0       -1.158724    2.292568    0.000000
    6         20             0        0.000000    0.259080    0.000000
    7         20             0        3.949632   -0.684442    0.000000
    8          8             0        1.759703   -1.113216    0.000000
    9         20             0        1.773747   -3.346866    0.000000
 ---------------------------------------------------------------------

 SCF Done:  E(RB+HF-LYP) =  -2750.02061791     A.U. after   11 cycles

 The electronic state is 1-A'.
 Alpha  occ. eigenvalues -- -145.53615-145.53578-145.50047 -77.37205 -19.32285
 Alpha  occ. eigenvalues --  -19.32239 -19.25991 -19.25965 -19.21484 -15.60596
 Alpha  occ. eigenvalues --  -15.60566 -15.56994 -12.73788 -12.73786 -12.73757
 Alpha  occ. eigenvalues --  -12.73755 -12.73665 -12.73635 -12.70273 -12.70211
 Alpha  occ. eigenvalues --  -12.70005  -6.81567  -4.98350  -4.97798  -4.97566
 Alpha  occ. eigenvalues --   -1.97724  -1.97675  -1.94383  -1.25378  -1.25212
 Alpha  occ. eigenvalues --   -1.25160  -1.25092  -1.24973  -1.24448  -1.24412
 Alpha  occ. eigenvalues --   -1.22436  -1.22165  -1.21706  -1.12129  -1.07019
 Alpha  occ. eigenvalues --   -0.97616  -0.96323  -0.68084  -0.57395  -0.56921
 Alpha  occ. eigenvalues --   -0.55209  -0.55010  -0.48187  -0.46315  -0.44357
 Alpha  occ. eigenvalues --   -0.43671  -0.42337  -0.42003  -0.40029  -0.39707
 Alpha  occ. eigenvalues --   -0.38335  -0.28897
 Alpha virt. eigenvalues --   -0.22639  -0.19565  -0.16883  -0.16630  -0.16498
 Alpha virt. eigenvalues --   -0.15312  -0.15091  -0.14323  -0.13788  -0.11434
 Alpha virt. eigenvalues --   -0.11378  -0.09504  -0.08517  -0.07810  -0.06459

 Mulliken atomic charges:
              1
     1  O   -0.377910
     2  O   -0.376121
     3  O   -0.848453
     4  P    1.727499
     5  O   -0.847549
     6  Ca   1.510356
     7  Ca   0.638302
     8  O   -1.101550
     9  Ca   0.675427
 Sum of Mulliken charges=   1.00000

 Dipole moment (field-independent basis, Debye):
    X=    14.4527    Y=    -9.3707    Z=     0.0000  Tot=    17.2247
 Quadrupole moment (field-independent basis, Debye-Ang):
   XX=   -59.6965   YY=   -62.5619   ZZ=   -82.8474
   XY=    -2.6681   XZ=     0.0000   YZ=     0.0000

 Normal termination of Gaussian 03 at Fri Jun 12 17:50:38 2015.
