 Gaussian 03, Revision E.01,
 Gaussian 03:  EM64T-G03RevE.01 11-Sep-2007

 ----------------------------------------------------
 # b3lyp/6-31+G(d,p) int=ultrafine pop=(ReadRadii,MK)
 ----------------------------------------------------

 ----------------------------------------
 mol_17.26.55.pdbccc_plusQ.z58467.zip.xyz
 ----------------------------------------
 Symbolic Z-matrix:
 Charge =  1 Multiplicity = 1

                         Standard orientation:
 ---------------------------------------------------------------------
 Center     Atomic     Atomic              Coordinates (Angstroms)
 Number     Number      Type              X           Y           Z
 ---------------------------------------------------------------------
    1          8             0        1.687170   -1.040778   -0.000389
    2          8             0       -2.788020   -1.054791   -0.784379
    3          8             0       -2.787500   -1.054871    0.784801
    4         20             0       -2.870641    1.038109    0.000351
    5          8             0       -0.624671    1.105100    0.000111
    6         20             0       -0.679890   -1.278220   -0.000499
    7         15             0        3.250320   -0.966278    0.000481
    8          8             0        3.591329    0.534583    0.000591
    9         20             0        1.481468    1.569122   -0.000509
 ---------------------------------------------------------------------

 SCF Done:  E(RB+HF-LYP) =  -2750.21059104     A.U. after    9 cycles

 The electronic state is 1-A.
 Alpha  occ. eigenvalues -- -145.52559-145.47904-145.45930 -77.31433 -19.29693
 Alpha  occ. eigenvalues --  -19.28903 -19.20255 -19.20249 -19.17095 -15.59458
 Alpha  occ. eigenvalues --  -15.54772 -15.52793 -12.72723 -12.72680 -12.72478
 Alpha  occ. eigenvalues --  -12.67982 -12.67952 -12.67881 -12.66030 -12.65992
 Alpha  occ. eigenvalues --  -12.65878  -6.77033  -4.93463  -4.93238  -4.92819
 Alpha  occ. eigenvalues --   -1.96691  -1.92077  -1.90161  -1.24615  -1.24613
 Alpha  occ. eigenvalues --   -1.23577  -1.20504  -1.19686  -1.19274  -1.18006
 Alpha  occ. eigenvalues --   -1.17959  -1.17613  -1.15364  -1.09601  -1.02799
 Alpha  occ. eigenvalues --   -0.91876  -0.84035  -0.68622  -0.57618  -0.54917
 Alpha  occ. eigenvalues --   -0.54229  -0.46662  -0.45214  -0.43697  -0.42878
 Alpha  occ. eigenvalues --   -0.41967  -0.41270  -0.37528  -0.36624  -0.35918
 Alpha  occ. eigenvalues --   -0.30800  -0.29151
 Alpha virt. eigenvalues --   -0.21351  -0.20121  -0.17697  -0.14555  -0.13030
 Alpha virt. eigenvalues --   -0.11137  -0.10817  -0.10363  -0.09100  -0.08476
 Alpha virt. eigenvalues --   -0.07858  -0.07110  -0.06764  -0.06248  -0.05628

 Mulliken atomic charges:
              1
     1  O   -0.739594
     2  O   -0.654253
     3  O   -0.654186
     4  Ca   1.457039
     5  O   -1.322808
     6  Ca   1.393416
     7  P    0.680195
     8  O   -0.655829
     9  Ca   1.496019
 Sum of Mulliken charges=   1.00000

 Dipole moment (field-independent basis, Debye):
    X=     1.5364    Y=     9.0250    Z=    -0.0054  Tot=     9.1548
 Quadrupole moment (field-independent basis, Debye-Ang):
   XX=   -64.0773   YY=   -51.7033   ZZ=   -77.1285
   XY=   -21.8700   XZ=    -0.0105   YZ=    -0.0003

 Normal termination of Gaussian 03 at Fri Jun 12 18:02:13 2015.
