 Gaussian 03, Revision E.01,
 Gaussian 03:  EM64T-G03RevE.01 11-Sep-2007

 ----------------------------------------------------
 # b3lyp/6-31+G(d,p) int=ultrafine pop=(ReadRadii,MK)
 ----------------------------------------------------

 ---------------------------------------
 mol_17.23.13.pdbcc_plusQ.z58214.zip.xyz
 ---------------------------------------
 Symbolic Z-matrix:
 Charge =  1 Multiplicity = 1

                         Standard orientation:
 ---------------------------------------------------------------------
 Center     Atomic     Atomic              Coordinates (Angstroms)
 Number     Number      Type              X           Y           Z
 ---------------------------------------------------------------------
    1         20             0       -4.959890   -0.147929    0.100700
    2         20             0       -1.088320   -0.169280   -0.037660
    3          8             0        0.655280   -1.661870   -0.514090
    4          8             0        1.033760   -0.326690   -1.154460
    5         15             0        1.334691    1.123650    0.047830
    6          8             0        0.177871    2.001910   -0.362290
    7          8             0        2.830841    1.260440   -0.179450
    8         20             0        2.753150   -1.147000    0.254800
    9          8             0        1.037350    0.279890    1.326010
 ---------------------------------------------------------------------

 SCF Done:  E(RB+HF-LYP) =  -2750.12490632     A.U. after   11 cycles

 The electronic state is 1-A.
 Alpha  occ. eigenvalues -- -145.54711-145.54662-145.51286 -77.31444 -19.29147
 Alpha  occ. eigenvalues --  -19.26627 -19.23258 -19.23047 -19.22987 -15.61738
 Alpha  occ. eigenvalues --  -15.61401 -15.58061 -12.74874 -12.74873 -12.74858
 Alpha  occ. eigenvalues --  -12.74623 -12.74612 -12.74545 -12.71295 -12.71246
 Alpha  occ. eigenvalues --  -12.71200  -6.76311  -4.92852  -4.92528  -4.92462
 Alpha  occ. eigenvalues --   -1.98839  -1.98288  -1.95056  -1.26693  -1.26104
 Alpha  occ. eigenvalues --   -1.26100  -1.25934  -1.25698  -1.25437  -1.23118
 Alpha  occ. eigenvalues --   -1.22626  -1.22383  -1.14552  -1.11145  -1.06009
 Alpha  occ. eigenvalues --   -1.04715  -0.92413  -0.62847  -0.56370  -0.53258
 Alpha  occ. eigenvalues --   -0.53125  -0.50383  -0.50231  -0.45622  -0.44082
 Alpha  occ. eigenvalues --   -0.42635  -0.42367  -0.40400  -0.38273  -0.36695
 Alpha  occ. eigenvalues --   -0.36094  -0.30710
 Alpha virt. eigenvalues --   -0.20460  -0.19645  -0.16292  -0.16150  -0.13478
 Alpha virt. eigenvalues --   -0.11268  -0.10919  -0.09616  -0.09590  -0.09058
 Alpha virt. eigenvalues --   -0.08641  -0.07422  -0.06243  -0.05713  -0.05352

 Mulliken atomic charges:
              1
     1  Ca   0.567778
     2  Ca   0.954818
     3  O   -0.618014
     4  O   -0.593004
     5  P    1.589833
     6  O   -0.750040
     7  O   -0.776214
     8  Ca   1.505737
     9  O   -0.880895
 Sum of Mulliken charges=   1.00000

 Dipole moment (field-independent basis, Debye):
    X=    -7.5602    Y=    -8.9928    Z=     2.9550  Tot=    12.1144
 Quadrupole moment (field-independent basis, Debye-Ang):
   XX=    35.2462   YY=   -87.4724   ZZ=   -89.6835
   XY=   -25.4737   XZ=     5.4685   YZ=    -4.0874

 Normal termination of Gaussian 03 at Fri Jun 12 17:51:49 2015.
