 Gaussian 03, Revision E.01,
 Gaussian 03:  EM64T-G03RevE.01 11-Sep-2007

 ----------------------------------------------------
 # b3lyp/6-31+G(d,p) int=ultrafine pop=(ReadRadii,MK)
 ----------------------------------------------------

 ----------------------------------------
 mol_17.26.46.pdbccc_plusQ.z58457.zip.xyz
 ----------------------------------------
 Symbolic Z-matrix:
 Charge =  1 Multiplicity = 1

                         Standard orientation:
 ---------------------------------------------------------------------
 Center     Atomic     Atomic              Coordinates (Angstroms)
 Number     Number      Type              X           Y           Z
 ---------------------------------------------------------------------
    1          8             0        1.687528   -1.040001    0.000232
    2          8             0       -2.787772   -1.055562   -0.784008
    3          8             0       -2.787422   -1.054512    0.785072
    4         20             0       -0.679731   -1.278082    0.000302
    5          8             0       -0.625112    1.105368   -0.000378
    6          8             0        3.592158    0.535000   -0.000438
    7         15             0        3.250738   -0.965790   -0.000648
    8         20             0        1.481337    1.568329    0.000742
    9         20             0       -2.871412    1.037978   -0.000748
 ---------------------------------------------------------------------

 SCF Done:  E(RB+HF-LYP) =  -2750.21059098     A.U. after    9 cycles

 The electronic state is 1-A.
 Alpha  occ. eigenvalues -- -145.52555-145.47909-145.45934 -77.31438 -19.29700
 Alpha  occ. eigenvalues --  -19.28908 -19.20254 -19.20249 -19.17093 -15.59454
 Alpha  occ. eigenvalues --  -15.54776 -15.52797 -12.72719 -12.72677 -12.72475
 Alpha  occ. eigenvalues --  -12.67987 -12.67956 -12.67885 -12.66034 -12.65996
 Alpha  occ. eigenvalues --  -12.65882  -6.77037  -4.93468  -4.93242  -4.92824
 Alpha  occ. eigenvalues --   -1.96687  -1.92081  -1.90164  -1.24612  -1.24611
 Alpha  occ. eigenvalues --   -1.23573  -1.20506  -1.19690  -1.19277  -1.18009
 Alpha  occ. eigenvalues --   -1.17962  -1.17616  -1.15368  -1.09606  -1.02803
 Alpha  occ. eigenvalues --   -0.91872  -0.84033  -0.68627  -0.57622  -0.54923
 Alpha  occ. eigenvalues --   -0.54234  -0.46667  -0.45220  -0.43698  -0.42881
 Alpha  occ. eigenvalues --   -0.41969  -0.41270  -0.37525  -0.36619  -0.35914
 Alpha  occ. eigenvalues --   -0.30799  -0.29149
 Alpha virt. eigenvalues --   -0.21355  -0.20117  -0.17697  -0.14558  -0.13028
 Alpha virt. eigenvalues --   -0.11136  -0.10816  -0.10361  -0.09101  -0.08478
 Alpha virt. eigenvalues --   -0.07859  -0.07112  -0.06764  -0.06247  -0.05627

 Mulliken atomic charges:
              1
     1  O   -0.739741
     2  O   -0.654291
     3  O   -0.654186
     4  Ca   1.393399
     5  O   -1.322780
     6  O   -0.655661
     7  P    0.680196
     8  Ca   1.495871
     9  Ca   1.457194
 Sum of Mulliken charges=   1.00000

 Dipole moment (field-independent basis, Debye):
    X=     1.5310    Y=     9.0171    Z=     0.0003  Tot=     9.1461
 Quadrupole moment (field-independent basis, Debye-Ang):
   XX=   -64.0471   YY=   -51.7337   ZZ=   -77.1288
   XY=   -21.8912   XZ=     0.0306   YZ=     0.0061

 Normal termination of Gaussian 03 at Fri Jun 12 18:01:11 2015.
