 Gaussian 03, Revision E.01,
 Gaussian 03:  EM64T-G03RevE.01 11-Sep-2007

 ----------------------------------------------------
 # b3lyp/6-31+G(d,p) int=ultrafine pop=(ReadRadii,MK)
 ----------------------------------------------------

 ---------------------------------------
 mol_17.29.24.pdbcc_plusQ.z58605.zip.xyz
 ---------------------------------------
 Symbolic Z-matrix:
 Charge =  1 Multiplicity = 1

                         Standard orientation:
 ---------------------------------------------------------------------
 Center     Atomic     Atomic              Coordinates (Angstroms)
 Number     Number      Type              X           Y           Z
 ---------------------------------------------------------------------
    1          8             0       -0.498889   -0.023677   -1.700679
    2         20             0        1.285723   -1.232660   -0.917029
    3          8             0        2.561262    0.089681    0.386591
    4          8             0        1.260907    0.764040    0.698271
    5         15             0        0.047751   -0.045551    1.763451
    6          8             0       -1.159782    0.883438    1.113811
    7         20             0       -0.087954    1.940740   -0.710149
    8          8             0       -0.164469   -1.443059    0.932181
    9         20             0       -2.033194   -0.782086   -0.267479
 ---------------------------------------------------------------------

 SCF Done:  E(RB+HF-LYP) =  -2750.19417481     A.U. after    9 cycles

 The electronic state is 1-A.
 Alpha  occ. eigenvalues -- -145.51633-145.51617-145.48703 -77.27308 -19.29090
 Alpha  occ. eigenvalues --  -19.23584 -19.23500 -19.23300 -19.17362 -15.58447
 Alpha  occ. eigenvalues --  -15.58442 -15.55552 -12.71660 -12.71649 -12.71623
 Alpha  occ. eigenvalues --  -12.71615 -12.71574 -12.71570 -12.68780 -12.68745
 Alpha  occ. eigenvalues --  -12.68646  -6.72406  -4.88811  -4.88697  -4.88163
 Alpha  occ. eigenvalues --   -1.95731  -1.95655  -1.92863  -1.23977  -1.23539
 Alpha  occ. eigenvalues --   -1.23425  -1.23070  -1.23017  -1.22522  -1.21065
 Alpha  occ. eigenvalues --   -1.20540  -1.19969  -1.13362  -1.07587  -1.03129
 Alpha  occ. eigenvalues --   -0.92342  -0.90588  -0.65543  -0.55307  -0.53396
 Alpha  occ. eigenvalues --   -0.51714  -0.49588  -0.46928  -0.44141  -0.42347
 Alpha  occ. eigenvalues --   -0.40317  -0.37818  -0.37656  -0.36843  -0.35237
 Alpha  occ. eigenvalues --   -0.33500  -0.32024
 Alpha virt. eigenvalues --   -0.20908  -0.19059  -0.17419  -0.13465  -0.12273
 Alpha virt. eigenvalues --   -0.11633  -0.10497  -0.10031  -0.08922  -0.08219
 Alpha virt. eigenvalues --   -0.07981  -0.06859  -0.06591  -0.06168  -0.05829

 Mulliken atomic charges:
              1
     1  O   -1.261334
     2  Ca   1.417562
     3  O   -0.568860
     4  O   -0.589680
     5  P    1.101272
     6  O   -1.001422
     7  Ca   1.492574
     8  O   -1.019018
     9  Ca   1.428907
 Sum of Mulliken charges=   1.00000

 Dipole moment (field-independent basis, Debye):
    X=    -6.9626    Y=    -0.1853    Z=    -8.5264  Tot=    11.0097
 Quadrupole moment (field-independent basis, Debye-Ang):
   XX=   -58.4080   YY=   -40.9011   ZZ=   -88.3139
   XY=    -0.4278   XZ=    -9.1126   YZ=    -0.4580

 Normal termination of Gaussian 03 at Fri Jun 12 18:12:24 2015.
