 Gaussian 03, Revision E.01,
 Gaussian 03:  EM64T-G03RevE.01 11-Sep-2007

 ----------------------------------------------------
 # b3lyp/6-31+G(d,p) int=ultrafine pop=(ReadRadii,MK)
 ----------------------------------------------------

 ----------------------------------------
 mol_17.27.49.pdbccc_plusQ.z58515.zip.xyz
 ----------------------------------------
 Symbolic Z-matrix:
 Charge =  1 Multiplicity = 1

                         Standard orientation:
 ---------------------------------------------------------------------
 Center     Atomic     Atomic              Coordinates (Angstroms)
 Number     Number      Type              X           Y           Z
 ---------------------------------------------------------------------
    1          8             0       -2.718032   -1.087089   -0.782129
    2          8             0       -2.713402   -1.085879    0.787571
    3          8             0        1.723968   -1.482122   -0.000629
    4         15             0        3.195529   -1.028562    0.002071
    5         20             0       -2.818520    0.995711    0.001291
    6          8             0        3.244059    0.522408    0.001401
    7         20             0       -0.601052   -1.308630   -0.003339
    8          8             0       -0.565330    1.105340   -0.003279
    9         20             0        1.434420    1.895279   -0.000679
 ---------------------------------------------------------------------

 SCF Done:  E(RB+HF-LYP) =  -2750.20951241     A.U. after    8 cycles

 The electronic state is 1-A.
 Alpha  occ. eigenvalues -- -145.53379-145.48025-145.45007 -77.30012 -19.27934
 Alpha  occ. eigenvalues --  -19.27547 -19.19898 -19.19893 -19.17839 -15.60281
 Alpha  occ. eigenvalues --  -15.54889 -15.51883 -12.73537 -12.73491 -12.73317
 Alpha  occ. eigenvalues --  -12.68098 -12.68071 -12.67999 -12.65126 -12.65089
 Alpha  occ. eigenvalues --  -12.64959  -6.75537  -4.91981  -4.91753  -4.91317
 Alpha  occ. eigenvalues --   -1.97503  -1.92191  -1.89263  -1.25363  -1.25245
 Alpha  occ. eigenvalues --   -1.24364  -1.20508  -1.19789  -1.19391  -1.17238
 Alpha  occ. eigenvalues --   -1.17104  -1.16786  -1.13787  -1.08270  -1.02445
 Alpha  occ. eigenvalues --   -0.92438  -0.83740  -0.67367  -0.56798  -0.52866
 Alpha  occ. eigenvalues --   -0.52605  -0.45491  -0.43617  -0.43395  -0.41976
 Alpha  occ. eigenvalues --   -0.41110  -0.40769  -0.37970  -0.37290  -0.36400
 Alpha  occ. eigenvalues --   -0.30516  -0.28905
 Alpha virt. eigenvalues --   -0.21306  -0.19780  -0.18056  -0.13553  -0.13432
 Alpha virt. eigenvalues --   -0.11668  -0.10899  -0.10470  -0.08659  -0.08273
 Alpha virt. eigenvalues --   -0.07165  -0.06880  -0.06463  -0.06214  -0.05653

 Mulliken atomic charges:
              1
     1  O   -0.651116
     2  O   -0.651020
     3  O   -0.678251
     4  P    0.665628
     5  Ca   1.443380
     6  O   -0.713762
     7  Ca   1.405616
     8  O   -1.347007
     9  Ca   1.526531
 Sum of Mulliken charges=   1.00000

 Dipole moment (field-independent basis, Debye):
    X=     1.2686    Y=    12.1270    Z=    -0.0137  Tot=    12.1932
 Quadrupole moment (field-independent basis, Debye-Ang):
   XX=   -63.4144   YY=   -46.2777   ZZ=   -77.2409
   XY=   -16.0545   XZ=     0.0004   YZ=     0.0694

 Normal termination of Gaussian 03 at Fri Jun 12 18:06:31 2015.
