 Gaussian 03, Revision E.01,
 Gaussian 03:  EM64T-G03RevE.01 11-Sep-2007

 ----------------------------------------------------
 # b3lyp/6-31+G(d,p) int=ultrafine pop=(ReadRadii,MK)
 ----------------------------------------------------

 -----------------------------------------
 mol_16.4.18.pdbc_plusQ.out.z51569.zip.xyz
 -----------------------------------------
 Symbolic Z-matrix:
 Charge =  1 Multiplicity = 1

                         Standard orientation:
 ---------------------------------------------------------------------
 Center     Atomic     Atomic              Coordinates (Angstroms)
 Number     Number      Type              X           Y           Z
 ---------------------------------------------------------------------
    1          8             0       -2.487901    1.239660    0.001010
    2         15             0       -3.421171    0.000260   -0.000180
    3         20             0       -0.487961   -0.000270    0.000100
    4          8             0       -2.488341   -1.239470   -0.000970
    5          8             0        1.677989   -0.001800    0.787970
    6          8             0        1.677929    0.001170   -0.787850
    7         20             0        3.701969    0.000251   -0.000030
 ---------------------------------------------------------------------

 SCF Done:  E(RB+HF-LYP) =  -1997.29959292     A.U. after    6 cycles

 The electronic state is 1-A.
 Alpha  occ. eigenvalues -- -145.61307-145.47830 -77.25111 -19.28178 -19.28173
 Alpha  occ. eigenvalues --  -19.23089 -19.23087 -15.68066 -15.54729 -12.81315
 Alpha  occ. eigenvalues --  -12.81252 -12.81182 -12.67977 -12.67950 -12.67783
 Alpha  occ. eigenvalues --   -6.70864  -4.87296  -4.87045  -4.86661  -2.04908
 Alpha  occ. eigenvalues --   -1.92042  -1.32456  -1.32381  -1.32127  -1.20436
 Alpha  occ. eigenvalues --   -1.19904  -1.19706  -1.11027  -1.08927  -1.03446
 Alpha  occ. eigenvalues --   -0.92089  -0.61802  -0.51529  -0.50968  -0.50581
 Alpha  occ. eigenvalues --   -0.48638  -0.48442  -0.48206  -0.40454  -0.40215
 Alpha  occ. eigenvalues --   -0.38739  -0.36541  -0.36217
 Alpha virt. eigenvalues --   -0.26771  -0.17588  -0.16698  -0.15594  -0.14691
 Alpha virt. eigenvalues --   -0.13211  -0.12488  -0.08761  -0.08298  -0.07810
 Alpha virt. eigenvalues --   -0.06076  -0.06006  -0.05734  -0.05252  -0.04043

 Mulliken atomic charges:
              1
     1  O   -0.637373
     2  P    0.477594
     3  Ca   1.514082
     4  O   -0.637384
     5  O   -0.649302
     6  O   -0.649301
     7  Ca   1.581683
 Sum of Mulliken charges=   1.00000

 Dipole moment (field-independent basis, Debye):
    X=    21.1362    Y=     0.0022    Z=    -0.0003  Tot=    21.1362
 Quadrupole moment (field-independent basis, Debye-Ang):
   XX=    29.9991   YY=   -65.5060   ZZ=   -58.2814
   XY=     0.0099   XZ=    -0.0015   YZ=    -0.0013

 Normal termination of Gaussian 03 at Fri Jun 12 17:48:04 2015.
