 Gaussian 03, Revision E.01,
 Gaussian 03:  EM64T-G03RevE.01 11-Sep-2007

 ----------------------------------------------------
 # b3lyp/6-31+G(d,p) int=ultrafine pop=(ReadRadii,MK)
 ----------------------------------------------------

 --------------------------------------
 mol_17.26.6.pdbcc_plusQ.z58472.zip.xyz
 --------------------------------------
 Symbolic Z-matrix:
 Charge =  1 Multiplicity = 1

                         Standard orientation:
 ---------------------------------------------------------------------
 Center     Atomic     Atomic              Coordinates (Angstroms)
 Number     Number      Type              X           Y           Z
 ---------------------------------------------------------------------
    1          8             0        1.143640   -0.843661   -0.001581
    2          8             0        2.664621    0.711268   -1.247781
    3         15             0        1.719921    0.735578    0.000439
    4          8             0        2.662441    0.708888    1.250279
    5         20             0        3.542150   -1.045523    0.000539
    6          8             0        0.463462    1.626839    0.000269
    7         20             0       -1.037919   -0.101909   -0.002461
    8          8             0       -3.225870   -0.349847   -0.000051
    9         20             0       -5.277489   -0.145646    0.001139
 ---------------------------------------------------------------------

 SCF Done:  E(RB+HF-LYP) =  -2750.24151895     A.U. after   11 cycles

 The electronic state is 1-A.
 Alpha  occ. eigenvalues -- -145.57730-145.50621-145.42416 -77.24160 -19.16325
 Alpha  occ. eigenvalues --  -19.16164 -19.16139 -19.14090 -19.14089 -15.64493
 Alpha  occ. eigenvalues --  -15.57316 -15.49351 -12.77712 -12.77711 -12.77578
 Alpha  occ. eigenvalues --  -12.70511 -12.70500 -12.70497 -12.62635 -12.62553
 Alpha  occ. eigenvalues --  -12.62372  -6.68706  -4.85149  -4.85014  -4.84952
 Alpha  occ. eigenvalues --   -2.01364  -1.94257  -1.86808  -1.28876  -1.28873
 Alpha  occ. eigenvalues --   -1.27980  -1.22220  -1.21458  -1.21421  -1.14927
 Alpha  occ. eigenvalues --   -1.14648  -1.14360  -1.05313  -0.98026  -0.95339
 Alpha  occ. eigenvalues --   -0.95328  -0.90121  -0.55281  -0.46957  -0.45645
 Alpha  occ. eigenvalues --   -0.44819  -0.39810  -0.37092  -0.36905  -0.36428
 Alpha  occ. eigenvalues --   -0.35361  -0.34416  -0.34248  -0.34134  -0.32116
 Alpha  occ. eigenvalues --   -0.30569  -0.28477
 Alpha virt. eigenvalues --   -0.25051  -0.18042  -0.15115  -0.15104  -0.13864
 Alpha virt. eigenvalues --   -0.10441  -0.08779  -0.08753  -0.07727  -0.06511
 Alpha virt. eigenvalues --   -0.06148  -0.05566  -0.05311  -0.05254  -0.04868

 Mulliken atomic charges:
              1
     1  O   -1.127039
     2  O   -0.911277
     3  P    1.753404
     4  O   -0.911355
     5  Ca   1.428966
     6  O   -0.869753
     7  Ca   1.353578
     8  O   -1.165093
     9  Ca   1.448569
 Sum of Mulliken charges=   1.00000

 Dipole moment (field-independent basis, Debye):
    X=   -17.8537    Y=   -10.6600    Z=    -0.0052  Tot=    20.7940
 Quadrupole moment (field-independent basis, Debye-Ang):
   XX=   125.6997   YY=   -78.0185   ZZ=   -85.8590
   XY=   -35.6431   XZ=    -0.0192   YZ=    -0.0049

 Normal termination of Gaussian 03 at Fri Jun 12 18:02:54 2015.
