 Gaussian 03, Revision E.01,
 Gaussian 03:  EM64T-G03RevE.01 11-Sep-2007

 ----------------------------------------------------
 # b3lyp/6-31+G(d,p) int=ultrafine pop=(ReadRadii,MK)
 ----------------------------------------------------

 ---------------------------------------
 mol_17.26.45.pdbcc_plusQ.z58456.zip.xyz
 ---------------------------------------
 Symbolic Z-matrix:
 Charge =  1 Multiplicity = 1

                         Standard orientation:
 ---------------------------------------------------------------------
 Center     Atomic     Atomic              Coordinates (Angstroms)
 Number     Number      Type              X           Y           Z
 ---------------------------------------------------------------------
    1          8             0        3.591120    0.534322    0.014191
    2          8             0       -2.790290   -1.053919   -0.781909
    3          8             0       -2.784550   -1.056179    0.787411
    4         20             0       -2.870740    1.037891    0.006071
    5          8             0       -0.624600    1.105321   -0.001689
    6          8             0        1.686810   -1.040938   -0.013259
    7         15             0        3.249860   -0.966488    0.007451
    8         20             0       -0.679620   -1.277809   -0.005479
    9         20             0        1.481570    1.569342   -0.008079
 ---------------------------------------------------------------------

 SCF Done:  E(RB+HF-LYP) =  -2750.21058910     A.U. after    9 cycles

 The electronic state is 1-A.
 Alpha  occ. eigenvalues -- -145.52562-145.47907-145.45922 -77.31435 -19.29694
 Alpha  occ. eigenvalues --  -19.28906 -19.20256 -19.20251 -19.17096 -15.59462
 Alpha  occ. eigenvalues --  -15.54775 -15.52786 -12.72727 -12.72684 -12.72482
 Alpha  occ. eigenvalues --  -12.67985 -12.67955 -12.67884 -12.66023 -12.65985
 Alpha  occ. eigenvalues --  -12.65870  -6.77034  -4.93465  -4.93239  -4.92821
 Alpha  occ. eigenvalues --   -1.96694  -1.92080  -1.90154  -1.24619  -1.24616
 Alpha  occ. eigenvalues --   -1.23580  -1.20505  -1.19689  -1.19276  -1.18004
 Alpha  occ. eigenvalues --   -1.17953  -1.17608  -1.15363  -1.09603  -1.02795
 Alpha  occ. eigenvalues --   -0.91877  -0.84039  -0.68625  -0.57621  -0.54918
 Alpha  occ. eigenvalues --   -0.54230  -0.46665  -0.45217  -0.43696  -0.42878
 Alpha  occ. eigenvalues --   -0.41966  -0.41269  -0.37528  -0.36624  -0.35918
 Alpha  occ. eigenvalues --   -0.30802  -0.29154
 Alpha virt. eigenvalues --   -0.21353  -0.20123  -0.17698  -0.14553  -0.13030
 Alpha virt. eigenvalues --   -0.11138  -0.10818  -0.10363  -0.09099  -0.08476
 Alpha virt. eigenvalues --   -0.07857  -0.07111  -0.06765  -0.06249  -0.05629

 Mulliken atomic charges:
              1
     1  O   -0.655809
     2  O   -0.654124
     3  O   -0.654270
     4  Ca   1.457075
     5  O   -1.322803
     6  O   -0.739513
     7  P    0.680213
     8  Ca   1.393212
     9  Ca   1.496020
 Sum of Mulliken charges=   1.00000

 Dipole moment (field-independent basis, Debye):
    X=     1.5365    Y=     9.0292    Z=    -0.0456  Tot=     9.1591
 Quadrupole moment (field-independent basis, Debye-Ang):
   XX=   -64.0568   YY=   -51.7152   ZZ=   -77.1289
   XY=   -21.8657   XZ=    -0.2261   YZ=    -0.0400

 Normal termination of Gaussian 03 at Fri Jun 12 18:01:06 2015.
