 Gaussian 03, Revision E.01,
 Gaussian 03:  EM64T-G03RevE.01 11-Sep-2007

 ----------------------------------------------------
 # b3lyp/6-31+G(d,p) int=ultrafine pop=(ReadRadii,MK)
 ----------------------------------------------------

 --------------------------------------
 mol_17.27.16.pdbc_plusQ.z58483.zip.xyz
 --------------------------------------
 Symbolic Z-matrix:
 Charge =  1 Multiplicity = 1

                         Standard orientation:
 ---------------------------------------------------------------------
 Center     Atomic     Atomic              Coordinates (Angstroms)
 Number     Number      Type              X           Y           Z
 ---------------------------------------------------------------------
    1          8             0        1.286266    1.860124    0.783300
    2          8             0        1.287116    1.860344   -0.782780
    3         20             0       -0.753224    2.217101   -0.000770
    4         15             0       -3.086341   -0.000022    0.001520
    5          8             0       -1.475691   -0.000010   -0.001560
    6         20             0       -0.753188   -2.217109   -0.000770
    7          8             0        1.286291   -1.860106    0.783300
    8          8             0        1.287141   -1.860326   -0.782780
    9         20             0        2.352719    0.000015    0.000610
 ---------------------------------------------------------------------

 SCF Done:  E(RB+HF-LYP) =  -2750.02740999     A.U. after   12 cycles

 The electronic state is 1-A.
 Alpha  occ. eigenvalues -- -145.51636-145.51632-145.45533 -77.27385 -19.31757
 Alpha  occ. eigenvalues --  -19.22780 -19.22765 -19.22711 -19.22696 -15.58465
 Alpha  occ. eigenvalues --  -15.58462 -15.52414 -12.71683 -12.71681 -12.71664
 Alpha  occ. eigenvalues --  -12.71662 -12.71577 -12.71575 -12.65662 -12.65605
 Alpha  occ. eigenvalues --  -12.65493  -6.73670  -4.90402  -4.89904  -4.88977
 Alpha  occ. eigenvalues --   -1.95616  -1.95612  -1.89732  -1.23685  -1.23435
 Alpha  occ. eigenvalues --   -1.23392  -1.23185  -1.23179  -1.23045  -1.17888
 Alpha  occ. eigenvalues --   -1.17697  -1.17259  -1.13141  -1.05815  -1.04915
 Alpha  occ. eigenvalues --   -0.86500  -0.86354  -0.69427  -0.54677  -0.52486
 Alpha  occ. eigenvalues --   -0.51569  -0.46288  -0.46027  -0.45683  -0.44403
 Alpha  occ. eigenvalues --   -0.43537  -0.42942  -0.34371  -0.33880  -0.32492
 Alpha  occ. eigenvalues --   -0.31552  -0.30580
 Alpha virt. eigenvalues --   -0.26474  -0.20391  -0.18090  -0.14017  -0.13069
 Alpha virt. eigenvalues --   -0.12676  -0.11931  -0.10054  -0.09072  -0.08517
 Alpha virt. eigenvalues --   -0.07717  -0.07192  -0.06675  -0.05951  -0.05831

 Mulliken atomic charges:
              1
     1  O   -0.658256
     2  O   -0.658496
     3  Ca   1.478480
     4  P   -0.041697
     5  O   -0.717213
     6  Ca   1.478182
     7  O   -0.657797
     8  O   -0.658050
     9  Ca   1.434846
 Sum of Mulliken charges=   1.00000

 Dipole moment (field-independent basis, Debye):
    X=    -5.1289    Y=    -0.0049    Z=    -0.0052  Tot=     5.1289
 Quadrupole moment (field-independent basis, Debye-Ang):
   XX=   -55.2612   YY=   -49.6485   ZZ=   -81.2469
   XY=    -0.0101   XZ=     0.0269   YZ=    -0.0001

 Normal termination of Gaussian 03 at Fri Jun 12 18:03:37 2015.
