 Gaussian 03, Revision E.01,
 Gaussian 03:  EM64T-G03RevE.01 11-Sep-2007

 ----------------------------------------------------
 # b3lyp/6-31+G(d,p) int=ultrafine pop=(ReadRadii,MK)
 ----------------------------------------------------

 --------------------------------------
 mol_17.23.20.pdbc_plusQ.z58221.zip.xyz
 --------------------------------------
 Symbolic Z-matrix:
 Charge =  1 Multiplicity = 1

                         Standard orientation:
 ---------------------------------------------------------------------
 Center     Atomic     Atomic              Coordinates (Angstroms)
 Number     Number      Type              X           Y           Z
 ---------------------------------------------------------------------
    1         20             0       -1.056191    4.791168    0.000000
    2          8             0        0.227289    3.003919    0.000000
    3          8             0       -1.298080    2.603838    0.000000
    4         15             0       -0.672579   -2.916911    0.000000
    5          8             0       -1.823279   -3.835032    0.000000
    6          8             0       -0.817769   -1.400601    0.000000
    7         20             0        0.000000    0.734099    0.000000
    8         20             0        2.733641   -2.138201    0.000000
    9          8             0        0.779301   -3.370581    0.000000
 ---------------------------------------------------------------------

 SCF Done:  E(RB+HF-LYP) =  -2750.10275791     A.U. after   15 cycles

 The electronic state is 1-A'.
 Alpha  occ. eigenvalues -- -145.55787-145.51424-145.48199 -77.32639 -19.26702
 Alpha  occ. eigenvalues --  -19.26548 -19.25437 -19.25402 -19.24561 -15.62635
 Alpha  occ. eigenvalues --  -15.58410 -15.55068 -12.75876 -12.75817 -12.75733
 Alpha  occ. eigenvalues --  -12.71597 -12.71589 -12.71493 -12.68345 -12.68255
 Alpha  occ. eigenvalues --  -12.68133  -6.77835  -4.94442  -4.93985  -4.93894
 Alpha  occ. eigenvalues --   -1.99593  -1.95466  -1.92292  -1.27201  -1.27169
 Alpha  occ. eigenvalues --   -1.26909  -1.22902  -1.22896  -1.22693  -1.20243
 Alpha  occ. eigenvalues --   -1.20216  -1.19824  -1.15259  -1.08348  -1.07680
 Alpha  occ. eigenvalues --   -1.07313  -0.89304  -0.64555  -0.56672  -0.53443
 Alpha  occ. eigenvalues --   -0.52927  -0.48691  -0.48131  -0.47114  -0.45888
 Alpha  occ. eigenvalues --   -0.44689  -0.44598  -0.42445  -0.39523  -0.37641
 Alpha  occ. eigenvalues --   -0.33480  -0.25900
 Alpha virt. eigenvalues --   -0.23961  -0.16931  -0.15136  -0.14463  -0.14358
 Alpha virt. eigenvalues --   -0.13818  -0.12001  -0.11594  -0.10744  -0.09608
 Alpha virt. eigenvalues --   -0.09402  -0.09199  -0.07649  -0.06571  -0.05965

 Mulliken atomic charges:
              1
     1  Ca   1.342645
     2  O   -0.637348
     3  O   -0.645614
     4  P    1.470473
     5  O   -0.617579
     6  O   -0.767634
     7  Ca   1.101599
     8  Ca   0.454289
     9  O   -0.700830
 Sum of Mulliken charges=   1.00000

 Dipole moment (field-independent basis, Debye):
    X=     3.0832    Y=    16.7413    Z=     0.0000  Tot=    17.0228
 Quadrupole moment (field-independent basis, Debye-Ang):
   XX=   -70.7305   YY=    11.4448   ZZ=   -81.4303
   XY=   -50.3141   XZ=     0.0000   YZ=     0.0000

 Normal termination of Gaussian 03 at Fri Jun 12 17:52:44 2015.
