 Gaussian 03, Revision E.01,
 Gaussian 03:  EM64T-G03RevE.01 11-Sep-2007

 ----------------------------------------------------
 # b3lyp/6-31+G(d,p) int=ultrafine pop=(ReadRadii,MK)
 ----------------------------------------------------

 ----------------------------------------
 mol_17.29.38.pdbccc_plusQ.z58620.zip.xyz
 ----------------------------------------
 Symbolic Z-matrix:
 Charge =  1 Multiplicity = 1

                         Standard orientation:
 ---------------------------------------------------------------------
 Center     Atomic     Atomic              Coordinates (Angstroms)
 Number     Number      Type              X           Y           Z
 ---------------------------------------------------------------------
    1          8             0       -4.596390   -0.825706   -0.549309
    2          8             0       -4.743359    0.057024    0.489971
    3         20             0       -2.542440   -0.102487    0.044381
    4          8             0       -0.446689    0.833071   -0.019389
    5         15             0        0.451540   -0.561589    0.030681
    6          8             0        1.524890   -0.322190   -1.188129
    7         20             0        3.317700   -1.219321    0.039291
    8          8             0        1.539780   -0.225750    1.212401
    9         20             0        1.574792    1.936420   -0.084899
 ---------------------------------------------------------------------

 SCF Done:  E(RB+HF-LYP) =  -2750.07115414     A.U. after   23 cycles

 The electronic state is 1-A.
 Alpha  occ. eigenvalues -- -145.55806-145.55793-145.50343 -77.28862 -19.26651
 Alpha  occ. eigenvalues --  -19.26618 -19.25998 -19.24603 -19.24595 -15.62654
 Alpha  occ. eigenvalues --  -15.62593 -15.57220 -12.75886 -12.75817 -12.75791
 Alpha  occ. eigenvalues --  -12.75787 -12.75765 -12.75732 -12.70498 -12.70443
 Alpha  occ. eigenvalues --  -12.70258  -6.74191  -4.90579  -4.90503  -4.90052
 Alpha  occ. eigenvalues --   -1.99649  -1.99562  -1.94448  -1.27532  -1.27294
 Alpha  occ. eigenvalues --   -1.26953  -1.26918  -1.26821  -1.26733  -1.23185
 Alpha  occ. eigenvalues --   -1.22345  -1.22067  -1.15000  -1.11883  -1.05516
 Alpha  occ. eigenvalues --   -1.03652  -0.83766  -0.66280  -0.54656  -0.53920
 Alpha  occ. eigenvalues --   -0.53366  -0.50438  -0.48148  -0.47382  -0.47228
 Alpha  occ. eigenvalues --   -0.46078  -0.44378  -0.41690  -0.39044  -0.36744
 Alpha  occ. eigenvalues --   -0.30653  -0.26416
 Alpha virt. eigenvalues --   -0.25061  -0.22389  -0.16923  -0.16069  -0.14833
 Alpha virt. eigenvalues --   -0.13383  -0.12939  -0.11792  -0.11332  -0.09250
 Alpha virt. eigenvalues --   -0.09078  -0.08423  -0.07707  -0.07587  -0.06529

 Mulliken atomic charges:
              1
     1  O   -0.346449
     2  O   -0.346573
     3  Ca   1.287145
     4  O   -0.914113
     5  P    0.722621
     6  O   -0.882360
     7  Ca   1.120577
     8  O   -0.875570
     9  Ca   1.234723
 Sum of Mulliken charges=   1.00000

 Dipole moment (field-independent basis, Debye):
    X=    15.1275    Y=     3.3228    Z=     0.1895  Tot=    15.4893
 Quadrupole moment (field-independent basis, Debye-Ang):
   XX=   -73.0621   YY=   -52.5969   ZZ=   -90.2273
   XY=   -10.2317   XZ=    -1.1119   YZ=    -3.0066

 Normal termination of Gaussian 03 at Fri Jun 12 18:14:42 2015.
