 Gaussian 03, Revision E.01,
 Gaussian 03:  EM64T-G03RevE.01 11-Sep-2007

 ----------------------------------------------------
 # b3lyp/6-31+G(d,p) int=ultrafine pop=(ReadRadii,MK)
 ----------------------------------------------------

 ---------------------------------------
 mol_17.23.42.pdbcc_plusQ.z58243.zip.xyz
 ---------------------------------------
 Symbolic Z-matrix:
 Charge =  1 Multiplicity = 1

                         Standard orientation:
 ---------------------------------------------------------------------
 Center     Atomic     Atomic              Coordinates (Angstroms)
 Number     Number      Type              X           Y           Z
 ---------------------------------------------------------------------
    1          8             0       -1.475970    0.000117    0.000268
    2         15             0       -3.086570    0.000235   -0.000322
    3         20             0       -0.753008    2.217093    0.000098
    4          8             0        1.286800    1.859852    0.783128
    5          8             0        1.286980    1.860242   -0.782902
    6         20             0        2.352940   -0.000184   -0.000232
    7          8             0        1.286650   -1.860418   -0.782912
    8          8             0        1.286480   -1.860038    0.783118
    9         20             0       -0.753381   -2.216987    0.000098
 ---------------------------------------------------------------------

 SCF Done:  E(RB+HF-LYP) =  -2750.02738200     A.U. after   11 cycles

 The electronic state is 1-A.
 Alpha  occ. eigenvalues -- -145.51627-145.51623-145.45501 -77.27390 -19.31783
 Alpha  occ. eigenvalues --  -19.22749 -19.22722 -19.22662 -19.22635 -15.58457
 Alpha  occ. eigenvalues --  -15.58454 -15.52382 -12.71675 -12.71672 -12.71656
 Alpha  occ. eigenvalues --  -12.71653 -12.71569 -12.71566 -12.65631 -12.65573
 Alpha  occ. eigenvalues --  -12.65462  -6.73682  -4.90415  -4.89915  -4.88986
 Alpha  occ. eigenvalues --   -1.95610  -1.95606  -1.89703  -1.23682  -1.23426
 Alpha  occ. eigenvalues --   -1.23383  -1.23179  -1.23173  -1.23040  -1.17859
 Alpha  occ. eigenvalues --   -1.17667  -1.17230  -1.13162  -1.05780  -1.04881
 Alpha  occ. eigenvalues --   -0.86462  -0.86319  -0.69446  -0.54697  -0.52507
 Alpha  occ. eigenvalues --   -0.51588  -0.46254  -0.45994  -0.45650  -0.44370
 Alpha  occ. eigenvalues --   -0.43505  -0.42908  -0.34337  -0.33846  -0.32512
 Alpha  occ. eigenvalues --   -0.31522  -0.30545
 Alpha virt. eigenvalues --   -0.26489  -0.20391  -0.18087  -0.14001  -0.13058
 Alpha virt. eigenvalues --   -0.12683  -0.11924  -0.10060  -0.09057  -0.08516
 Alpha virt. eigenvalues --   -0.07717  -0.07161  -0.06674  -0.05952  -0.05825

 Mulliken atomic charges:
              1
     1  O   -0.717398
     2  P   -0.040786
     3  Ca   1.478081
     4  O   -0.659068
     5  O   -0.657336
     6  Ca   1.434909
     7  O   -0.657483
     8  O   -0.659207
     9  Ca   1.478289
 Sum of Mulliken charges=   1.00000

 Dipole moment (field-independent basis, Debye):
    X=    -5.1431    Y=     0.0005    Z=    -0.0159  Tot=     5.1432
 Quadrupole moment (field-independent basis, Debye-Ang):
   XX=   -55.2252   YY=   -49.6714   ZZ=   -81.2558
   XY=     0.0058   XZ=    -0.0248   YZ=    -0.0001

 Normal termination of Gaussian 03 at Fri Jun 12 17:54:07 2015.
