 Gaussian 03, Revision E.01,
 Gaussian 03:  EM64T-G03RevE.01 11-Sep-2007

 ----------------------------------------------------
 # b3lyp/6-31+G(d,p) int=ultrafine pop=(ReadRadii,MK)
 ----------------------------------------------------

 ----------------------------------------
 mol_17.25.45.pdbccc_plusQ.z58350.zip.xyz
 ----------------------------------------
 Symbolic Z-matrix:
 Charge =  1 Multiplicity = 1

                         Standard orientation:
 ---------------------------------------------------------------------
 Center     Atomic     Atomic              Coordinates (Angstroms)
 Number     Number      Type              X           Y           Z
 ---------------------------------------------------------------------
    1         20             0        0.108699   -1.696830   -0.414882
    2          8             0        2.105937    1.242492    0.999178
    3         15             0        2.474428   -0.172108    0.388288
    4          8             0        1.652988   -0.115649   -1.079622
    5         20             0        0.553136    1.808690   -0.528072
    6          8             0        1.764579   -1.385889    1.106748
    7          8             0       -1.935992   -0.691162   -0.826702
    8          8             0       -1.254323    0.395219    0.046618
    9         20             0       -3.450932    0.239217    0.553248
 ---------------------------------------------------------------------

 SCF Done:  E(RB+HF-LYP) =  -2750.13842735     A.U. after   12 cycles

 The electronic state is 1-A.
 Alpha  occ. eigenvalues -- -145.55157-145.51621-145.49087 -77.26613 -19.29155
 Alpha  occ. eigenvalues --  -19.28711 -19.22267 -19.21002 -19.20672 -15.62075
 Alpha  occ. eigenvalues --  -15.58438 -15.55975 -12.75303 -12.75253 -12.75162
 Alpha  occ. eigenvalues --  -12.71652 -12.71618 -12.71565 -12.69210 -12.69173
 Alpha  occ. eigenvalues --  -12.69054  -6.71587  -4.87960  -4.87845  -4.87672
 Alpha  occ. eigenvalues --   -1.99126  -1.95600  -1.93291  -1.26852  -1.26726
 Alpha  occ. eigenvalues --   -1.26498  -1.23545  -1.23154  -1.22919  -1.21273
 Alpha  occ. eigenvalues --   -1.21005  -1.20802  -1.11926  -1.08194  -1.01565
 Alpha  occ. eigenvalues --   -1.00985  -0.92444  -0.61355  -0.53223  -0.51520
 Alpha  occ. eigenvalues --   -0.50764  -0.49845  -0.49817  -0.48218  -0.43984
 Alpha  occ. eigenvalues --   -0.41062  -0.39863  -0.38221  -0.38050  -0.37143
 Alpha  occ. eigenvalues --   -0.36665  -0.27722
 Alpha virt. eigenvalues --   -0.24695  -0.19904  -0.17648  -0.15768  -0.15227
 Alpha virt. eigenvalues --   -0.12659  -0.12580  -0.11138  -0.09517  -0.09122
 Alpha virt. eigenvalues --   -0.07945  -0.07199  -0.06854  -0.06433  -0.05441

 Mulliken atomic charges:
              1
     1  Ca   1.365995
     2  O   -0.810302
     3  P    0.738832
     4  O   -0.962498
     5  Ca   1.406117
     6  O   -0.819608
     7  O   -0.646408
     8  O   -0.698580
     9  Ca   1.426452
 Sum of Mulliken charges=   1.00000

 Dipole moment (field-independent basis, Debye):
    X=   -24.4886    Y=     3.2473    Z=    -2.5570  Tot=    24.8350
 Quadrupole moment (field-independent basis, Debye-Ang):
   XX=   -38.1739   YY=   -44.7853   ZZ=   -84.7637
   XY=    -1.6985   XZ=   -23.8034   YZ=    -2.2770

 Normal termination of Gaussian 03 at Fri Jun 12 17:58:59 2015.
