 Gaussian 03, Revision E.01,
 Gaussian 03:  EM64T-G03RevE.01 11-Sep-2007

 ----------------------------------------------------
 # b3lyp/6-31+G(d,p) int=ultrafine pop=(ReadRadii,MK)
 ----------------------------------------------------

 ---------------------------------------
 mol_17.26.32.pdbcc_plusQ.z58444.zip.xyz
 ---------------------------------------
 Symbolic Z-matrix:
 Charge =  1 Multiplicity = 1

                         Standard orientation:
 ---------------------------------------------------------------------
 Center     Atomic     Atomic              Coordinates (Angstroms)
 Number     Number      Type              X           Y           Z
 ---------------------------------------------------------------------
    1          8             0       -2.613767    0.556405    0.000279
    2          8             0       -1.096958   -1.392364    0.000039
    3          8             0       -0.889467   -2.872785    0.000319
    4          8             0        2.344658   -0.257554    0.785219
    5          8             0        2.346008   -0.257385   -0.784531
    6         20             0        1.267498   -2.055608   -0.000751
    7         15             0       -2.662806   -0.965245    0.000469
    8         20             0       -1.481034    2.628408   -0.000651
    9         20             0        2.174451    1.840607    0.000519
 ---------------------------------------------------------------------

 SCF Done:  E(RB+HF-LYP) =  -2749.99884192     A.U. after   12 cycles

 The electronic state is 1-A.
 Alpha  occ. eigenvalues -- -145.52574-145.49923-145.49263 -77.32882 -19.36656
 Alpha  occ. eigenvalues --  -19.30233 -19.28095 -19.24003 -19.23997 -15.59558
 Alpha  occ. eigenvalues --  -15.56895 -15.56147 -12.72748 -12.72734 -12.72640
 Alpha  occ. eigenvalues --  -12.70117 -12.70082 -12.69963 -12.69400 -12.69372
 Alpha  occ. eigenvalues --  -12.69194  -6.78482  -4.94814  -4.94750  -4.94262
 Alpha  occ. eigenvalues --   -1.96639  -1.94117  -1.93411  -1.24100  -1.24098
 Alpha  occ. eigenvalues --   -1.23845  -1.23572  -1.22284  -1.21619  -1.21600
 Alpha  occ. eigenvalues --   -1.21074  -1.20947  -1.19706  -1.13864  -1.06481
 Alpha  occ. eigenvalues --   -0.96976  -0.87696  -0.71327  -0.61064  -0.58392
 Alpha  occ. eigenvalues --   -0.56912  -0.50275  -0.49803  -0.47324  -0.46500
 Alpha  occ. eigenvalues --   -0.44946  -0.44441  -0.39673  -0.37295  -0.35678
 Alpha  occ. eigenvalues --   -0.32150  -0.28158
 Alpha virt. eigenvalues --   -0.22708  -0.19170  -0.16454  -0.15379  -0.14709
 Alpha virt. eigenvalues --   -0.13728  -0.11970  -0.11640  -0.09950  -0.09682
 Alpha virt. eigenvalues --   -0.08979  -0.07748  -0.07107  -0.07088  -0.06641

 Mulliken atomic charges:
              1
     1  O   -0.600689
     2  O   -0.333822
     3  O   -0.511987
     4  O   -0.649611
     5  O   -0.649782
     6  Ca   1.402262
     7  P    0.825410
     8  Ca   0.570594
     9  Ca   0.947625
 Sum of Mulliken charges=   1.00000

 Dipole moment (field-independent basis, Debye):
    X=     0.8253    Y=     4.4319    Z=    -0.0055  Tot=     4.5081
 Quadrupole moment (field-independent basis, Debye-Ang):
   XX=   -58.7849   YY=   -46.2692   ZZ=   -85.3476
   XY=   -10.5194   XZ=     0.0036   YZ=     0.0158

 Normal termination of Gaussian 03 at Fri Jun 12 18:01:02 2015.
