 Gaussian 03, Revision E.01,
 Gaussian 03:  EM64T-G03RevE.01 11-Sep-2007

 ----------------------------------------------------
 # b3lyp/6-31+G(d,p) int=ultrafine pop=(ReadRadii,MK)
 ----------------------------------------------------

 -----------------------------------------
 mol_17.25.50.pdbcccc_plusQ.z58356.zip.xyz
 -----------------------------------------
 Symbolic Z-matrix:
 Charge =  1 Multiplicity = 1

                         Standard orientation:
 ---------------------------------------------------------------------
 Center     Atomic     Atomic              Coordinates (Angstroms)
 Number     Number      Type              X           Y           Z
 ---------------------------------------------------------------------
    1          8             0       -1.944372   -1.258797    0.458869
    2          8             0       -3.012971   -0.400966    1.131099
    3         15             0       -0.415841   -0.530249    0.716659
    4         20             0       -2.784100    0.362374   -0.919051
    5         20             0        1.277722    1.987889    0.301289
    6          8             0       -0.649019    0.845401   -0.285581
    7          8             0        2.966311    0.762376   -0.080521
    8         20             0        2.686948   -1.324753   -0.354741
    9          8             0        0.468328   -1.517570   -0.136351
 ---------------------------------------------------------------------

 SCF Done:  E(RB+HF-LYP) =  -2750.12385966     A.U. after    9 cycles

 The electronic state is 1-A.
 Alpha  occ. eigenvalues -- -145.52461-145.49020-145.48651 -77.25667 -19.27822
 Alpha  occ. eigenvalues --  -19.22837 -19.22138 -19.21059 -19.12477 -15.59292
 Alpha  occ. eigenvalues --  -15.55906 -15.55547 -12.72515 -12.72455 -12.72416
 Alpha  occ. eigenvalues --  -12.69156 -12.69101 -12.68961 -12.68797 -12.68719
 Alpha  occ. eigenvalues --  -12.68617  -6.70818  -4.87215  -4.87158  -4.86610
 Alpha  occ. eigenvalues --   -1.96470  -1.93143  -1.92785  -1.24744  -1.23995
 Alpha  occ. eigenvalues --   -1.23682  -1.21016  -1.20803  -1.20626  -1.20376
 Alpha  occ. eigenvalues --   -1.20121  -1.19561  -1.12444  -1.05474  -1.01514
 Alpha  occ. eigenvalues --   -0.89722  -0.86718  -0.63915  -0.53425  -0.51605
 Alpha  occ. eigenvalues --   -0.50595  -0.47028  -0.44589  -0.42847  -0.41261
 Alpha  occ. eigenvalues --   -0.38430  -0.33903  -0.32804  -0.32485  -0.31766
 Alpha  occ. eigenvalues --   -0.30861  -0.30583
 Alpha virt. eigenvalues --   -0.20706  -0.18577  -0.17493  -0.12515  -0.12232
 Alpha virt. eigenvalues --   -0.10367  -0.09894  -0.09383  -0.08639  -0.08230
 Alpha virt. eigenvalues --   -0.07493  -0.07341  -0.07103  -0.05903  -0.05761

 Mulliken atomic charges:
              1
     1  O   -0.500922
     2  O   -0.530057
     3  P    0.812843
     4  Ca   1.463857
     5  Ca   1.422849
     6  O   -1.039568
     7  O   -1.186999
     8  Ca   1.441225
     9  O   -0.883227
 Sum of Mulliken charges=   1.00000

 Dipole moment (field-independent basis, Debye):
    X=     0.3940    Y=     5.2302    Z=    -8.2450  Tot=     9.7719
 Quadrupole moment (field-independent basis, Debye-Ang):
   XX=   -42.2227   YY=   -46.7536   ZZ=   -72.5136
   XY=   -32.6901   XZ=    26.1388   YZ=     7.1048

 Normal termination of Gaussian 03 at Fri Jun 12 17:58:43 2015.
