 Gaussian 03, Revision E.01,
 Gaussian 03:  EM64T-G03RevE.01 11-Sep-2007

 ----------------------------------------------------
 # b3lyp/6-31+G(d,p) int=ultrafine pop=(ReadRadii,MK)
 ----------------------------------------------------

 --------------------------------------
 mol_17.27.37.pdbc_plusQ.z58503.zip.xyz
 --------------------------------------
 Symbolic Z-matrix:
 Charge =  1 Multiplicity = 1

                         Standard orientation:
 ---------------------------------------------------------------------
 Center     Atomic     Atomic              Coordinates (Angstroms)
 Number     Number      Type              X           Y           Z
 ---------------------------------------------------------------------
    1          8             0       -1.548803   -1.910594    0.001159
    2          8             0        2.236304   -0.962301   -0.786111
    3          8             0        2.236994   -0.958131    0.786959
    4         20             0        2.435866    1.167790   -0.005151
    5         20             0        0.687759   -2.333486    0.004719
    6         15             0       -2.860285   -1.097699   -0.006431
    7         20             0       -1.396938    2.374566    0.004579
    8          8             0       -2.581701    0.418322   -0.001321
    9          8             0        0.703522    2.448714    0.001009
 ---------------------------------------------------------------------

 SCF Done:  E(RB+HF-LYP) =  -2750.19709148     A.U. after    8 cycles

 The electronic state is 1-A.
 Alpha  occ. eigenvalues -- -145.50294-145.49505-145.43944 -77.29896 -19.27840
 Alpha  occ. eigenvalues --  -19.27677 -19.22465 -19.22458 -19.12091 -15.57156
 Alpha  occ. eigenvalues --  -15.56404 -15.50914 -12.70394 -12.70373 -12.70226
 Alpha  occ. eigenvalues --  -12.69658 -12.69612 -12.69441 -12.64139 -12.64136
 Alpha  occ. eigenvalues --  -12.63950  -6.75413  -4.91858  -4.91633  -4.91188
 Alpha  occ. eigenvalues --   -1.94359  -1.93643  -1.88336  -1.22324  -1.22051
 Alpha  occ. eigenvalues --   -1.21957  -1.21499  -1.21372  -1.20546  -1.16507
 Alpha  occ. eigenvalues --   -1.16123  -1.15600  -1.13680  -1.08457  -1.04674
 Alpha  occ. eigenvalues --   -0.86233  -0.86201  -0.67744  -0.57311  -0.52548
 Alpha  occ. eigenvalues --   -0.52477  -0.45792  -0.45749  -0.44705  -0.43907
 Alpha  occ. eigenvalues --   -0.42954  -0.40365  -0.34045  -0.32524  -0.30938
 Alpha  occ. eigenvalues --   -0.30484  -0.30297
 Alpha virt. eigenvalues --   -0.19697  -0.18381  -0.17469  -0.14044  -0.12042
 Alpha virt. eigenvalues --   -0.10562  -0.10159  -0.08886  -0.08328  -0.08285
 Alpha virt. eigenvalues --   -0.07007  -0.06742  -0.06059  -0.05994  -0.05473

 Mulliken atomic charges:
              1
     1  O   -0.703027
     2  O   -0.676491
     3  O   -0.676283
     4  Ca   1.393454
     5  Ca   1.497885
     6  P    0.656386
     7  Ca   1.456734
     8  O   -0.704536
     9  O   -1.244123
 Sum of Mulliken charges=   1.00000

 Dipole moment (field-independent basis, Debye):
    X=    -1.9445    Y=     0.4972    Z=     0.0136  Tot=     2.0071
 Quadrupole moment (field-independent basis, Debye-Ang):
   XX=   -56.0952   YY=   -34.7222   ZZ=   -77.5547
   XY=   -11.0280   XZ=    -0.1241   YZ=    -0.0581

 Normal termination of Gaussian 03 at Fri Jun 12 18:06:29 2015.
