 Gaussian 03, Revision E.01,
 Gaussian 03:  EM64T-G03RevE.01 11-Sep-2007

 ----------------------------------------------------
 # b3lyp/6-31+G(d,p) int=ultrafine pop=(ReadRadii,MK)
 ----------------------------------------------------

 --------------------------------------
 mol_17.23.0.pdbcc_plusQ.z58210.zip.xyz
 --------------------------------------
 Symbolic Z-matrix:
 Charge =  1 Multiplicity = 1

                         Standard orientation:
 ---------------------------------------------------------------------
 Center     Atomic     Atomic              Coordinates (Angstroms)
 Number     Number      Type              X           Y           Z
 ---------------------------------------------------------------------
    1          8             0       -1.600833   -1.073980    0.771340
    2          8             0       -1.597773   -1.074920   -0.769120
    3         15             0       -2.750172    0.006000   -0.001430
    4          8             0       -4.165562   -0.415809   -0.004030
    5         20             0        0.730567   -1.404322    0.002590
    6          8             0        2.889027   -1.543693   -0.002020
    7          8             0        1.125428    0.989518    0.002160
    8         20             0        3.350808    0.522737   -0.002080
    9         20             0       -0.678861    2.124639    0.001230
 ---------------------------------------------------------------------

 SCF Done:  E(RB+HF-LYP) =  -2750.06718216     A.U. after   11 cycles

 The electronic state is 1-A.
 Alpha  occ. eigenvalues -- -145.57072-145.47956-145.45754 -77.31717 -19.35978
 Alpha  occ. eigenvalues --  -19.35972 -19.26118 -19.19132 -19.11153 -15.63914
 Alpha  occ. eigenvalues --  -15.54853 -15.52645 -12.77155 -12.77119 -12.76983
 Alpha  occ. eigenvalues --  -12.68092 -12.68008 -12.67936 -12.65903 -12.65840
 Alpha  occ. eigenvalues --  -12.65706  -6.77241  -4.93639  -4.93590  -4.93016
 Alpha  occ. eigenvalues --   -2.00965  -1.92141  -1.90003  -1.28655  -1.28497
 Alpha  occ. eigenvalues --   -1.27682  -1.26291  -1.19991  -1.19661  -1.19118
 Alpha  occ. eigenvalues --   -1.17953  -1.17479  -1.16655  -1.10588  -1.00126
 Alpha  occ. eigenvalues --   -0.93706  -0.85189  -0.72096  -0.59785  -0.58275
 Alpha  occ. eigenvalues --   -0.55188  -0.53272  -0.46814  -0.44084  -0.42533
 Alpha  occ. eigenvalues --   -0.41066  -0.39828  -0.38844  -0.37541  -0.30742
 Alpha  occ. eigenvalues --   -0.29285  -0.28974
 Alpha virt. eigenvalues --   -0.23706  -0.20114  -0.19153  -0.16958  -0.14917
 Alpha virt. eigenvalues --   -0.13591  -0.13519  -0.12063  -0.11021  -0.10138
 Alpha virt. eigenvalues --   -0.08304  -0.08096  -0.07750  -0.07237  -0.06596

 Mulliken atomic charges:
              1
     1  O   -0.308040
     2  O   -0.308203
     3  P    0.628379
     4  O   -0.680910
     5  Ca   1.297861
     6  O   -1.108775
     7  O   -1.309967
     8  Ca   1.356149
     9  Ca   1.433506
 Sum of Mulliken charges=   1.00000

 Dipole moment (field-independent basis, Debye):
    X=     5.3286    Y=    14.4523    Z=     0.0141  Tot=    15.4034
 Quadrupole moment (field-independent basis, Debye-Ang):
   XX=   -74.5865   YY=   -50.6411   ZZ=   -76.0909
   XY=    10.3689   XZ=    -0.0449   YZ=    -0.0498

 Normal termination of Gaussian 03 at Fri Jun 12 17:51:43 2015.
