 Gaussian 03, Revision E.01,
 Gaussian 03:  EM64T-G03RevE.01 11-Sep-2007

 ----------------------------------------------------
 # b3lyp/6-31+G(d,p) int=ultrafine pop=(ReadRadii,MK)
 ----------------------------------------------------

 -----------------------------------------
 mol_17.25.56.pdbcccc_plusQ.z58361.zip.xyz
 -----------------------------------------
 Symbolic Z-matrix:
 Charge =  1 Multiplicity = 1

                         Standard orientation:
 ---------------------------------------------------------------------
 Center     Atomic     Atomic              Coordinates (Angstroms)
 Number     Number      Type              X           Y           Z
 ---------------------------------------------------------------------
    1          8             0       -3.132639   -0.535018    0.769823
    2          8             0       -3.137589   -0.535808   -0.763097
    3         15             0       -2.849619    1.020282    0.001593
    4         20             0        1.080681    1.427431   -0.001537
    5          8             0       -1.296709    1.093392   -0.003757
    6          8             0        3.233471    1.276000    0.001573
    7         20             0        3.349151   -0.851130    0.001753
    8          8             0        1.093871   -0.947699   -0.001297
    9         20             0       -0.996780   -1.481859   -0.002707
 ---------------------------------------------------------------------

 SCF Done:  E(RB+HF-LYP) =  -2750.13248277     A.U. after    9 cycles

 The electronic state is 1-A.
 Alpha  occ. eigenvalues -- -145.52147-145.47055-145.45743 -77.33858 -19.36999
 Alpha  occ. eigenvalues --  -19.36988 -19.29669 -19.17038 -19.10771 -15.59009
 Alpha  occ. eigenvalues --  -15.53955 -15.52657 -12.72253 -12.72240 -12.72054
 Alpha  occ. eigenvalues --  -12.67196 -12.67111 -12.67033 -12.65926 -12.65836
 Alpha  occ. eigenvalues --  -12.65705  -6.79172  -4.95531  -4.95447  -4.94936
 Alpha  occ. eigenvalues --   -1.96222  -1.91249  -1.90052  -1.28429  -1.24007
 Alpha  occ. eigenvalues --   -1.23839  -1.22361  -1.19122  -1.18896  -1.18221
 Alpha  occ. eigenvalues --   -1.18089  -1.17446  -1.17177  -1.12878  -1.01036
 Alpha  occ. eigenvalues --   -0.91707  -0.84708  -0.73767  -0.61686  -0.60230
 Alpha  occ. eigenvalues --   -0.58887  -0.54725  -0.49820  -0.47609  -0.44041
 Alpha  occ. eigenvalues --   -0.43353  -0.37878  -0.36789  -0.35761  -0.30232
 Alpha  occ. eigenvalues --   -0.28787  -0.28457
 Alpha virt. eigenvalues --   -0.20340  -0.19645  -0.17747  -0.17264  -0.15283
 Alpha virt. eigenvalues --   -0.12027  -0.11234  -0.10209  -0.09967  -0.09649
 Alpha virt. eigenvalues --   -0.09350  -0.08174  -0.07379  -0.07021  -0.06561

 Mulliken atomic charges:
              1
     1  O   -0.374842
     2  O   -0.374828
     3  P    0.841333
     4  Ca   1.337013
     5  O   -0.794539
     6  O   -1.139894
     7  Ca   1.346349
     8  O   -1.319310
     9  Ca   1.478718
 Sum of Mulliken charges=   1.00000

 Dipole moment (field-independent basis, Debye):
    X=     0.4579    Y=    -7.5360    Z=    -0.0138  Tot=     7.5499
 Quadrupole moment (field-independent basis, Debye-Ang):
   XX=   -65.3510   YY=   -56.0195   ZZ=   -75.5971
   XY=   -26.3151   XZ=     0.0329   YZ=     0.0024

 Normal termination of Gaussian 03 at Fri Jun 12 17:58:54 2015.
