 Gaussian 03, Revision E.01,
 Gaussian 03:  EM64T-G03RevE.01 11-Sep-2007

 ----------------------------------------------------
 # b3lyp/6-31+G(d,p) int=ultrafine pop=(ReadRadii,MK)
 ----------------------------------------------------

 -----------------------------------------
 mol_16.4.32.pdb_plusQc.out.z51582.zip.xyz
 -----------------------------------------
 Symbolic Z-matrix:
 Charge =  1 Multiplicity = 1

                         Standard orientation:
 ---------------------------------------------------------------------
 Center     Atomic     Atomic              Coordinates (Angstroms)
 Number     Number      Type              X           Y           Z
 ---------------------------------------------------------------------
    1          8             0        0.253348   -0.980881   -0.001720
    2         20             0       -2.249862   -0.687010    0.000150
    3          8             0       -0.980241    0.815340   -1.249920
    4         15             0       -0.066841    0.678429   -0.000080
    5          8             0        1.349209    1.316509    0.000740
    6          8             0       -0.980131    0.813280    1.250430
    7         20             0        2.443118   -0.607512    0.000100
 ---------------------------------------------------------------------

 SCF Done:  E(RB+HF-LYP) =  -1997.39686887     A.U. after    8 cycles

 The electronic state is 1-A.
 Alpha  occ. eigenvalues -- -145.57533-145.56082 -77.29913 -19.22722 -19.22254
 Alpha  occ. eigenvalues --  -19.19554 -19.19552 -15.64319 -15.62762 -12.77562
 Alpha  occ. eigenvalues --  -12.77467 -12.77460 -12.75973 -12.75945 -12.75943
 Alpha  occ. eigenvalues --   -6.74484  -4.90938  -4.90798  -4.90703  -2.01272
 Alpha  occ. eigenvalues --   -1.99582  -1.28871  -1.28822  -1.28362  -1.27403
 Alpha  occ. eigenvalues --   -1.26815  -1.26716  -1.11438  -1.04115  -1.01263
 Alpha  occ. eigenvalues --   -1.01108  -0.61208  -0.53187  -0.51398  -0.50523
 Alpha  occ. eigenvalues --   -0.45793  -0.42783  -0.42563  -0.41444  -0.40248
 Alpha  occ. eigenvalues --   -0.37999  -0.36314  -0.34168
 Alpha virt. eigenvalues --   -0.23646  -0.21662  -0.14043  -0.13673  -0.12206
 Alpha virt. eigenvalues --   -0.12006  -0.11173  -0.08339  -0.07556  -0.06422
 Alpha virt. eigenvalues --   -0.05281  -0.05143  -0.04532  -0.04382  -0.04181

 Mulliken atomic charges:
              1
     1  O   -1.127618
     2  Ca   1.448907
     3  O   -0.883895
     4  P    1.786185
     5  O   -0.864598
     6  O   -0.884143
     7  Ca   1.525162
 Sum of Mulliken charges=   1.00000

 Dipole moment (field-independent basis, Debye):
    X=     2.7639    Y=   -12.3580    Z=     0.0026  Tot=    12.6633
 Quadrupole moment (field-independent basis, Debye-Ang):
   XX=    21.9855   YY=   -59.4588   ZZ=   -66.1636
   XY=     1.3219   XZ=     0.0005   YZ=    -0.0056

 Normal termination of Gaussian 03 at Fri Jun 12 17:48:22 2015.
