 Gaussian 03, Revision E.01,
 Gaussian 03:  EM64T-G03RevE.01 11-Sep-2007

 ----------------------------------------------------
 # b3lyp/6-31+G(d,p) int=ultrafine pop=(ReadRadii,MK)
 ----------------------------------------------------

 ----------------------------------------
 mol_17.23.1.pdbcccc_plusQ.z58220.zip.xyz
 ----------------------------------------
 Symbolic Z-matrix:
 Charge =  1 Multiplicity = 1

                         Standard orientation:
 ---------------------------------------------------------------------
 Center     Atomic     Atomic              Coordinates (Angstroms)
 Number     Number      Type              X           Y           Z
 ---------------------------------------------------------------------
    1          8             0       -2.572081   -1.030898   -0.764511
    2          8             0       -2.570841   -1.027928    0.768849
    3         15             0       -2.857731    0.514152   -0.000471
    4          8             0       -1.436340    1.151071   -0.002201
    5         20             0       -0.201341   -1.108599   -0.001731
    6         20             0        0.784460    1.731710    0.000739
    7          8             0        1.409289   -0.032490    1.346959
    8          8             0        1.410799   -0.031090   -1.347231
    9         20             0        3.063849   -0.620191    0.000599
 ---------------------------------------------------------------------

 SCF Done:  E(RB+HF-LYP) =  -2750.11395236     A.U. after    8 cycles

 The electronic state is 1-A.
 Alpha  occ. eigenvalues -- -145.51169-145.49810-145.48414 -77.32067 -19.34928
 Alpha  occ. eigenvalues --  -19.34826 -19.27865 -19.15326 -19.15306 -15.58064
 Alpha  occ. eigenvalues --  -15.56617 -15.55231 -12.71318 -12.71190 -12.71161
 Alpha  occ. eigenvalues --  -12.69846 -12.69770 -12.69754 -12.68507 -12.68392
 Alpha  occ. eigenvalues --  -12.68335  -6.77343  -4.93708  -4.93615  -4.93114
 Alpha  occ. eigenvalues --   -1.95367  -1.93878  -1.92472  -1.26243  -1.23439
 Alpha  occ. eigenvalues --   -1.22790  -1.22262  -1.22240  -1.21072  -1.20977
 Alpha  occ. eigenvalues --   -1.20248  -1.19606  -1.18986  -1.11249  -0.98954
 Alpha  occ. eigenvalues --   -0.90319  -0.89545  -0.71918  -0.60011  -0.58219
 Alpha  occ. eigenvalues --   -0.56909  -0.52769  -0.47901  -0.45640  -0.42194
 Alpha  occ. eigenvalues --   -0.41201  -0.36351  -0.36297  -0.35890  -0.34503
 Alpha  occ. eigenvalues --   -0.34173  -0.29891
 Alpha virt. eigenvalues --   -0.22046  -0.18209  -0.18152  -0.16293  -0.15072
 Alpha virt. eigenvalues --   -0.13505  -0.11611  -0.10422  -0.09704  -0.09601
 Alpha virt. eigenvalues --   -0.07608  -0.07100  -0.06728  -0.06710  -0.05989

 Mulliken atomic charges:
              1
     1  O   -0.357782
     2  O   -0.359890
     3  P    0.779137
     4  O   -0.772294
     5  Ca   1.375800
     6  Ca   1.397506
     7  O   -1.185458
     8  O   -1.185059
     9  Ca   1.308040
 Sum of Mulliken charges=   1.00000

 Dipole moment (field-independent basis, Debye):
    X=    10.7566    Y=     1.2238    Z=    -0.0135  Tot=    10.8260
 Quadrupole moment (field-independent basis, Debye-Ang):
   XX=   -32.4242   YY=   -45.7606   ZZ=  -100.1387
   XY=    -7.3465   XZ=     0.0703   YZ=     0.0558

 Normal termination of Gaussian 03 at Fri Jun 12 17:52:24 2015.
