 Gaussian 03, Revision E.01,
 Gaussian 03:  EM64T-G03RevE.01 11-Sep-2007

 ----------------------------------------------------
 # b3lyp/6-31+G(d,p) int=ultrafine pop=(ReadRadii,MK)
 ----------------------------------------------------

 -----------------------------------------
 mol_17.29.26.pdbcccc_plusQ.z58607.zip.xyz
 -----------------------------------------
 Symbolic Z-matrix:
 Charge =  1 Multiplicity = 1

                         Standard orientation:
 ---------------------------------------------------------------------
 Center     Atomic     Atomic              Coordinates (Angstroms)
 Number     Number      Type              X           Y           Z
 ---------------------------------------------------------------------
    1          8             0       -0.499588   -0.016038   -1.701009
    2         20             0        1.284712   -1.229242   -0.922509
    3          8             0        2.561502    0.084158    0.389761
    4          8             0        1.260298    0.758238    0.699491
    5         15             0        0.047711   -0.053072    1.763121
    6          8             0       -1.158941    0.879437    1.116941
    7         20             0       -0.085303    1.945939   -0.702439
    8          8             0       -0.166540   -1.447711    0.927131
    9         20             0       -2.033885   -0.780126   -0.270319
 ---------------------------------------------------------------------

 SCF Done:  E(RB+HF-LYP) =  -2750.19417682     A.U. after    9 cycles

 The electronic state is 1-A.
 Alpha  occ. eigenvalues -- -145.51668-145.51598-145.48705 -77.27300 -19.29098
 Alpha  occ. eigenvalues --  -19.23569 -19.23485 -19.23302 -19.17353 -15.58480
 Alpha  occ. eigenvalues --  -15.58423 -15.55553 -12.71694 -12.71656 -12.71630
 Alpha  occ. eigenvalues --  -12.71608 -12.71596 -12.71551 -12.68781 -12.68747
 Alpha  occ. eigenvalues --  -12.68647  -6.72397  -4.88803  -4.88689  -4.88155
 Alpha  occ. eigenvalues --   -1.95724  -1.95669  -1.92863  -1.23977  -1.23552
 Alpha  occ. eigenvalues --   -1.23414  -1.23063  -1.23029  -1.22529  -1.21067
 Alpha  occ. eigenvalues --   -1.20538  -1.19967  -1.13368  -1.07569  -1.03111
 Alpha  occ. eigenvalues --   -0.92324  -0.90594  -0.65536  -0.55301  -0.53393
 Alpha  occ. eigenvalues --   -0.51718  -0.49582  -0.46917  -0.44125  -0.42330
 Alpha  occ. eigenvalues --   -0.40299  -0.37802  -0.37636  -0.36828  -0.35226
 Alpha  occ. eigenvalues --   -0.33502  -0.32027
 Alpha virt. eigenvalues --   -0.20905  -0.19067  -0.17414  -0.13459  -0.12277
 Alpha virt. eigenvalues --   -0.11629  -0.10495  -0.10037  -0.08915  -0.08220
 Alpha virt. eigenvalues --   -0.07985  -0.06859  -0.06591  -0.06167  -0.05828

 Mulliken atomic charges:
              1
     1  O   -1.261602
     2  Ca   1.417410
     3  O   -0.569093
     4  O   -0.590458
     5  P    1.101656
     6  O   -1.001304
     7  Ca   1.493414
     8  O   -1.019066
     9  Ca   1.429042
 Sum of Mulliken charges=   1.00000

 Dipole moment (field-independent basis, Debye):
    X=    -6.9477    Y=    -0.1150    Z=    -8.5317  Tot=    11.0033
 Quadrupole moment (field-independent basis, Debye-Ang):
   XX=   -58.4126   YY=   -40.8373   ZZ=   -88.3261
   XY=    -0.3304   XZ=    -9.1516   YZ=    -0.2569

 Normal termination of Gaussian 03 at Fri Jun 12 18:12:29 2015.
