 Gaussian 03, Revision E.01,
 Gaussian 03:  EM64T-G03RevE.01 11-Sep-2007

 ----------------------------------------------------
 # b3lyp/6-31+G(d,p) int=ultrafine pop=(ReadRadii,MK)
 ----------------------------------------------------

 ---------------------------------------
 mol_17.29.22.pdbcc_plusQ.z58603.zip.xyz
 ---------------------------------------
 Symbolic Z-matrix:
 Charge =  1 Multiplicity = 1

                         Standard orientation:
 ---------------------------------------------------------------------
 Center     Atomic     Atomic              Coordinates (Angstroms)
 Number     Number      Type              X           Y           Z
 ---------------------------------------------------------------------
    1          8             0       -0.499381   -0.016807   -1.701080
    2         20             0        1.284443   -1.229797   -0.921780
    3          8             0        2.561510    0.084306    0.389340
    4          8             0        1.260463    0.758623    0.699800
    5         15             0        0.047409   -0.052730    1.763010
    6          8             0       -1.159116    0.879876    1.116480
    7         20             0       -0.084710    1.945350   -0.702980
    8          8             0       -0.166738   -1.447289    0.927370
    9         20             0       -2.033985   -0.779489   -0.270260
 ---------------------------------------------------------------------

 SCF Done:  E(RB+HF-LYP) =  -2750.19417662     A.U. after    9 cycles

 The electronic state is 1-A.
 Alpha  occ. eigenvalues -- -145.51666-145.51597-145.48703 -77.27303 -19.29099
 Alpha  occ. eigenvalues --  -19.23572 -19.23493 -19.23306 -19.17355 -15.58479
 Alpha  occ. eigenvalues --  -15.58423 -15.55551 -12.71692 -12.71655 -12.71630
 Alpha  occ. eigenvalues --  -12.71606 -12.71595 -12.71550 -12.68779 -12.68745
 Alpha  occ. eigenvalues --  -12.68645  -6.72400  -4.88806  -4.88692  -4.88158
 Alpha  occ. eigenvalues --   -1.95724  -1.95669  -1.92862  -1.23978  -1.23552
 Alpha  occ. eigenvalues --   -1.23415  -1.23063  -1.23029  -1.22528  -1.21067
 Alpha  occ. eigenvalues --   -1.20538  -1.19967  -1.13366  -1.07576  -1.03119
 Alpha  occ. eigenvalues --   -0.92327  -0.90598  -0.65540  -0.55305  -0.53396
 Alpha  occ. eigenvalues --   -0.51719  -0.49587  -0.46921  -0.44131  -0.42337
 Alpha  occ. eigenvalues --   -0.40306  -0.37804  -0.37639  -0.36831  -0.35229
 Alpha  occ. eigenvalues --   -0.33507  -0.32030
 Alpha virt. eigenvalues --   -0.20904  -0.19066  -0.17414  -0.13459  -0.12277
 Alpha virt. eigenvalues --   -0.11629  -0.10498  -0.10038  -0.08917  -0.08220
 Alpha virt. eigenvalues --   -0.07984  -0.06859  -0.06591  -0.06167  -0.05828

 Mulliken atomic charges:
              1
     1  O   -1.261533
     2  Ca   1.417357
     3  O   -0.568937
     4  O   -0.590420
     5  P    1.101488
     6  O   -1.001341
     7  Ca   1.493342
     8  O   -1.018909
     9  Ca   1.428954
 Sum of Mulliken charges=   1.00000

 Dipole moment (field-independent basis, Debye):
    X=    -6.9469    Y=    -0.1193    Z=    -8.5291  Tot=    11.0009
 Quadrupole moment (field-independent basis, Debye-Ang):
   XX=   -58.4141   YY=   -40.8482   ZZ=   -88.3302
   XY=    -0.3361   XZ=    -9.1427   YZ=    -0.2770

 Normal termination of Gaussian 03 at Fri Jun 12 18:12:18 2015.
