 Gaussian 03, Revision E.01,
 Gaussian 03:  EM64T-G03RevE.01 11-Sep-2007

 -------------------------------------
 # b3lyp/6-31G(d,p) pop=(ReadRadii,MK)
 -------------------------------------

 ----------
 Ca2HPO4_53
 ----------
 Symbolic Z-matrix:
 Charge =  0 Multiplicity = 1

                         Standard orientation:
 ---------------------------------------------------------------------
 Center     Atomic     Atomic              Coordinates (Angstroms)
 Number     Number      Type              X           Y           Z
 ---------------------------------------------------------------------
    1          8             0       -1.334417   -1.333334   -0.678190
    2         15             0       -1.547230   -0.014054    0.104583
    3          1             0       -2.829390   -0.025971    0.688166
    4          8             0       -1.358723    1.309947   -0.676456
    5          8             0        2.147621    0.019655   -0.420653
    6         20             0        0.835276    1.642878    0.046413
    7         20             0        0.866162   -1.627592    0.046532
    8          8             0       -0.453346   -0.004887    1.260820
 ---------------------------------------------------------------------

 SCF Done:  E(RB+HF-LYP) =  -1998.18466319     A.U. after    8 cycles

 The electronic state is 1-A.
 Alpha  occ. eigenvalues -- -145.33871-145.33864 -77.15635 -19.08572 -19.07756
 Alpha  occ. eigenvalues --  -19.07751 -18.98689 -15.40979 -15.40973 -12.54182
 Alpha  occ. eigenvalues --  -12.54176 -12.54166 -12.54160 -12.54022 -12.54015
 Alpha  occ. eigenvalues --   -6.60628  -4.76996  -4.76897  -4.76865  -1.78577
 Alpha  occ. eigenvalues --   -1.78499  -1.07219  -1.06328  -1.06305  -1.06079
 Alpha  occ. eigenvalues --   -1.05937  -1.05146  -0.97025  -0.89657  -0.89145
 Alpha  occ. eigenvalues --   -0.72738  -0.52417  -0.41394  -0.38166  -0.37702
 Alpha  occ. eigenvalues --   -0.31285  -0.29084  -0.27399  -0.26166  -0.26020
 Alpha  occ. eigenvalues --   -0.23314  -0.18583  -0.16894  -0.16618
 Alpha virt. eigenvalues --   -0.07032  -0.05779   0.00799   0.00823   0.02429
 Alpha virt. eigenvalues --    0.02682   0.04315   0.05250   0.07232   0.09392
 Alpha virt. eigenvalues --    0.12717   0.13874   0.14653   0.15289   0.17021

 Mulliken atomic charges:
              1
     1  O   -0.708911
     2  P    1.145309
     3  H   -0.109859
     4  O   -0.709055
     5  O   -0.905759
     6  Ca   1.038881
     7  Ca   1.038870
     8  O   -0.789475
 Sum of Mulliken charges=   0.00000

 Dipole moment (field-independent basis, Debye):
    X=     3.1626    Y=     0.0265    Z=     3.1943  Tot=     4.4951
 Quadrupole moment (field-independent basis, Debye-Ang):
   XX=   -81.5752   YY=   -33.6975   ZZ=   -69.9162
   XY=    -0.4452   XZ=     1.2200   YZ=     0.0087

 Normal termination of Gaussian 03 at Mon May  4 20:08:39 2015.
