 Gaussian 03, Revision E.01,
 Gaussian 03:  EM64T-G03RevE.01 11-Sep-2007

 -------------------------------------
 # b3lyp/6-31G(d,p) pop=(ReadRadii,MK)
 -------------------------------------

 ----------
 Ca2HPO4_38
 ----------
 Symbolic Z-matrix:
 Charge =  0 Multiplicity = 1

                         Standard orientation:
 ---------------------------------------------------------------------
 Center     Atomic     Atomic              Coordinates (Angstroms)
 Number     Number      Type              X           Y           Z
 ---------------------------------------------------------------------
    1          8             0       -0.298893   -1.137010    1.078040
    2          8             0       -0.551075    0.327616    1.454960
    3         20             0       -1.924039   -0.045275   -0.273453
    4         15             0        0.925825   -1.313623   -0.259753
    5          1             0       -1.420674    2.160992   -0.621407
    6          8             0        0.057442   -0.371165   -1.314750
    7         20             0        0.784771    1.526567   -0.049965
    8          8             0        2.082360   -0.329753    0.155010
 ---------------------------------------------------------------------

 SCF Done:  E(RB+HF-LYP) =  -1998.05842752     A.U. after    7 cycles

 The electronic state is 1-A.
 Alpha  occ. eigenvalues -- -145.37038-145.35546 -77.10461 -19.14121 -19.10744
 Alpha  occ. eigenvalues --  -19.06978 -19.05829 -15.44101 -15.42618 -12.57289
 Alpha  occ. eigenvalues --  -12.57239 -12.57224 -12.55820 -12.55788 -12.55697
 Alpha  occ. eigenvalues --   -6.55845  -4.72276  -4.72114  -4.71631  -1.81579
 Alpha  occ. eigenvalues --   -1.80081  -1.10165  -1.09092  -1.08876  -1.07904
 Alpha  occ. eigenvalues --   -1.07558  -1.07205  -0.97918  -0.91450  -0.86466
 Alpha  occ. eigenvalues --   -0.77464  -0.48903  -0.39429  -0.36856  -0.36139
 Alpha  occ. eigenvalues --   -0.33141  -0.31863  -0.27338  -0.24701  -0.24440
 Alpha  occ. eigenvalues --   -0.23572  -0.22674  -0.20591  -0.18247
 Alpha virt. eigenvalues --   -0.08012  -0.05928  -0.00675   0.00455   0.00834
 Alpha virt. eigenvalues --    0.02467   0.03175   0.04617   0.06505   0.07173
 Alpha virt. eigenvalues --    0.09644   0.11323   0.13038   0.13454   0.14184

 Mulliken atomic charges:
              1
     1  O   -0.474059
     2  O   -0.558611
     3  Ca   1.052705
     4  P    0.942226
     5  H   -0.406750
     6  O   -0.833662
     7  Ca   1.030408
     8  O   -0.752258
 Sum of Mulliken charges=   0.00000

 Dipole moment (field-independent basis, Debye):
    X=    -5.7498    Y=     4.7258    Z=    -2.1189  Tot=     7.7385
 Quadrupole moment (field-independent basis, Debye-Ang):
   XX=   -49.0589   YY=   -62.7884   ZZ=   -76.0962
   XY=    20.6055   XZ=     2.6234   YZ=     3.1125

 Normal termination of Gaussian 03 at Mon May  4 20:08:26 2015.
