 Gaussian 03, Revision E.01,
 Gaussian 03:  EM64T-G03RevE.01 11-Sep-2007

 --------------------------------------------
 # b3lyp/6-31G(d,p) pop=(ReadRadii,MK) scf=qc
 --------------------------------------------

 ----------
 Ca2HPO4_28
 ----------
 Symbolic Z-matrix:
 Charge =  0 Multiplicity = 1

                         Standard orientation:
 ---------------------------------------------------------------------
 Center     Atomic     Atomic              Coordinates (Angstroms)
 Number     Number      Type              X           Y           Z
 ---------------------------------------------------------------------
    1          8             0        1.523600   -0.138237    0.000000
    2          8             0        1.752650   -1.571469    0.000000
    3         20             0       -0.000821   -2.805199    0.000000
    4          8             0       -1.752370   -1.571220    0.000000
    5          8             0       -1.522890   -0.138246    0.000000
    6         15             0        0.000000    0.671828    0.000000
    7          1             0        0.000330    5.484941    0.000000
    8         20             0        0.000409    3.394751    0.000000
 ---------------------------------------------------------------------

 SCF Done:  E(RB+HF-LYP) =  -1997.71013011     a.u. after   10 cycles

 The electronic state is 1-A'.
 Alpha  occ. eigenvalues -- -145.39965-145.38936 -77.07755 -19.14870 -19.14861
 Alpha  occ. eigenvalues --  -19.10878 -19.10870 -15.47038 -15.46199 -12.60245
 Alpha  occ. eigenvalues --  -12.60214 -12.60099 -12.59440 -12.59362 -12.59187
 Alpha  occ. eigenvalues --   -6.54148  -4.70756  -4.70318  -4.69697  -1.84464
 Alpha  occ. eigenvalues --   -1.83694  -1.12185  -1.12152  -1.11857  -1.11612
 Alpha  occ. eigenvalues --   -1.11267  -1.10249  -1.01104  -1.00048  -0.79091
 Alpha  occ. eigenvalues --   -0.76850  -0.52386  -0.43536  -0.37673  -0.35368
 Alpha  occ. eigenvalues --   -0.34031  -0.33172  -0.32782  -0.23199  -0.21688
 Alpha  occ. eigenvalues --   -0.21671  -0.20741  -0.18745  -0.10325
 Alpha virt. eigenvalues --   -0.10853  -0.04636  -0.03614  -0.02010  -0.00673
 Alpha virt. eigenvalues --   -0.00475   0.00260   0.02989   0.03550   0.05258
 Alpha virt. eigenvalues --    0.06143   0.09038   0.09918   0.10452   0.10658

 Mulliken atomic charges:
              1
     1  O   -0.371702
     2  O   -0.520451
     3  Ca   1.219051
     4  O   -0.520545
     5  O   -0.371559
     6  P    0.200712
     7  H   -0.278798
     8  Ca   0.643291
 Sum of Mulliken charges=   0.00000

 Dipole moment (field-independent basis, Debye):
    X=    -0.0066    Y=    -9.9191    Z=     0.0000  Tot=     9.9191
 Quadrupole moment (field-independent basis, Debye-Ang):
   XX=   -84.6285   YY=   -47.8299   ZZ=   -70.0969
   XY=     0.0221   XZ=     0.0000   YZ=     0.0000

 Normal termination of Gaussian 03 at Mon May  4 21:03:12 2015.
