 Gaussian 03, Revision E.01,
 Gaussian 03:  EM64T-G03RevE.01 11-Sep-2007

 -------------------------------------
 # b3lyp/6-31G(d,p) pop=(ReadRadii,MK)
 -------------------------------------

 ----------
 Ca2HPO4_40
 ----------
 Symbolic Z-matrix:
 Charge =  0 Multiplicity = 1

                         Standard orientation:
 ---------------------------------------------------------------------
 Center     Atomic     Atomic              Coordinates (Angstroms)
 Number     Number      Type              X           Y           Z
 ---------------------------------------------------------------------
    1         20             0        0.848038    1.636919    0.046593
    2          8             0       -1.348908    1.319342   -0.677636
    3          8             0        2.146911    0.003618   -0.421076
    4         15             0       -1.547079   -0.002497    0.104639
    5          1             0       -2.828929   -0.004390    0.689138
    6          8             0       -0.453342   -0.000582    1.260760
    7         20             0        0.853743   -1.634191    0.046529
    8          8             0       -1.344721   -1.323968   -0.677193
 ---------------------------------------------------------------------

 SCF Done:  E(RB+HF-LYP) =  -1998.18466019     A.U. after    8 cycles

 The electronic state is 1-A.
 Alpha  occ. eigenvalues -- -145.33873-145.33868 -77.15627 -19.08570 -19.07749
 Alpha  occ. eigenvalues --  -19.07749 -18.98696 -15.40982 -15.40976 -12.54184
 Alpha  occ. eigenvalues --  -12.54179 -12.54168 -12.54163 -12.54024 -12.54019
 Alpha  occ. eigenvalues --   -6.60620  -4.76988  -4.76889  -4.76857  -1.78579
 Alpha  occ. eigenvalues --   -1.78501  -1.07219  -1.06329  -1.06306  -1.06081
 Alpha  occ. eigenvalues --   -1.05939  -1.05148  -0.97024  -0.89651  -0.89145
 Alpha  occ. eigenvalues --   -0.72746  -0.52408  -0.41389  -0.38163  -0.37697
 Alpha  occ. eigenvalues --   -0.31282  -0.29081  -0.27391  -0.26161  -0.26019
 Alpha  occ. eigenvalues --   -0.23310  -0.18591  -0.16901  -0.16625
 Alpha virt. eigenvalues --   -0.07034  -0.05782   0.00796   0.00822   0.02426
 Alpha virt. eigenvalues --    0.02679   0.04316   0.05248   0.07231   0.09392
 Alpha virt. eigenvalues --    0.12722   0.13882   0.14656   0.15289   0.17023

 Mulliken atomic charges:
              1
     1  Ca   1.039029
     2  O   -0.708956
     3  O   -0.906062
     4  P    1.145261
     5  H   -0.109964
     6  O   -0.789442
     7  Ca   1.039085
     8  O   -0.708951
 Sum of Mulliken charges=   0.00000

 Dipole moment (field-independent basis, Debye):
    X=     3.1714    Y=     0.0044    Z=     3.1984  Tot=     4.5042
 Quadrupole moment (field-independent basis, Debye-Ang):
   XX=   -81.5704   YY=   -33.6754   ZZ=   -69.9152
   XY=    -0.0849   XZ=     1.2249   YZ=     0.0037

 Normal termination of Gaussian 03 at Mon May  4 20:08:37 2015.
