 Gaussian 03, Revision E.01,
 Gaussian 03:  EM64T-G03RevE.01 11-Sep-2007

 -------------------------------------
 # b3lyp/6-31G(d,p) pop=(ReadRadii,MK)
 -------------------------------------

 ----------
 Ca2HPO4_24
 ----------
 Symbolic Z-matrix:
 Charge =  0 Multiplicity = 1

                         Standard orientation:
 ---------------------------------------------------------------------
 Center     Atomic     Atomic              Coordinates (Angstroms)
 Number     Number      Type              X           Y           Z
 ---------------------------------------------------------------------
    1          8             0        1.706893    0.836373   -0.648560
    2         15             0        1.697944   -0.433506    0.282802
    3          8             0        0.730063   -1.669465   -0.788129
    4          1             0        1.130944   -1.693372   -1.666640
    5          8             0        0.410339   -0.191384    1.241850
    6         20             0       -1.354639   -1.236453    0.121737
    7          8             0       -2.074226    0.690235   -0.445673
    8         20             0       -0.284593    1.779946    0.005700
 ---------------------------------------------------------------------

 SCF Done:  E(RB+HF-LYP) =  -1998.15976543     A.U. after    8 cycles

 The electronic state is 1-A.
 Alpha  occ. eigenvalues -- -145.33116-145.32747 -77.11910 -19.12627 -19.08144
 Alpha  occ. eigenvalues --  -19.06985 -18.98356 -15.40260 -15.39895 -12.53452
 Alpha  occ. eigenvalues --  -12.53435 -12.53311 -12.53098 -12.53082 -12.52922
 Alpha  occ. eigenvalues --   -6.57194  -4.73680  -4.73439  -4.72948  -1.77922
 Alpha  occ. eigenvalues --   -1.77531  -1.06403  -1.05725  -1.05417  -1.05262
 Alpha  occ. eigenvalues --   -1.05169  -1.04329  -0.96427  -0.92061  -0.87762
 Alpha  occ. eigenvalues --   -0.72359  -0.51587  -0.44478  -0.37703  -0.35419
 Alpha  occ. eigenvalues --   -0.34825  -0.30086  -0.27556  -0.25470  -0.24279
 Alpha  occ. eigenvalues --   -0.19567  -0.18137  -0.16447  -0.16237
 Alpha virt. eigenvalues --   -0.06625  -0.05374   0.00206   0.01047   0.02021
 Alpha virt. eigenvalues --    0.03086   0.03652   0.05112   0.06726   0.07257
 Alpha virt. eigenvalues --    0.09754   0.12241   0.13962   0.15691   0.16155

 Mulliken atomic charges:
              1
     1  O   -0.752112
     2  P    0.925376
     3  O   -0.746161
     4  H    0.318538
     5  O   -0.825721
     6  Ca   0.997810
     7  O   -0.901591
     8  Ca   0.983861
 Sum of Mulliken charges=   0.00000

 Dipole moment (field-independent basis, Debye):
    X=    -2.7876    Y=    -0.2684    Z=     1.1731  Tot=     3.0363
 Quadrupole moment (field-independent basis, Debye-Ang):
   XX=   -81.9063   YY=   -39.0356   ZZ=   -66.6667
   XY=    12.9436   XZ=    -6.4215   YZ=     4.2534

 Normal termination of Gaussian 03 at Mon May  4 20:08:25 2015.
