 Gaussian 03, Revision E.01,
 Gaussian 03:  EM64T-G03RevE.01 11-Sep-2007

 --------------------------------------------
 # b3lyp/6-31G(d,p) pop=(ReadRadii,MK) scf=qc
 --------------------------------------------

 ---------
 Ca2HPO4_5
 ---------
 Symbolic Z-matrix:
 Charge =  0 Multiplicity = 1

                         Standard orientation:
 ---------------------------------------------------------------------
 Center     Atomic     Atomic              Coordinates (Angstroms)
 Number     Number      Type              X           Y           Z
 ---------------------------------------------------------------------
    1          8             0       -1.929540   -0.903463    0.000000
    2         15             0       -0.342814   -0.875684    0.000000
    3         20             0       -2.323340    1.373618    0.000000
    4          1             0       -3.756900    2.902778    0.000000
    5          8             0        0.000000    0.839278    0.000000
    6          8             0        1.379380    1.267419    0.000000
    7         20             0        2.641100   -0.572567    0.000000
    8          8             0        0.868148   -1.926801    0.000000
 ---------------------------------------------------------------------

 SCF Done:  E(RB+HF-LYP) =  -1997.91169192     a.u. after   28 cycles

 The electronic state is 1-A'.
 Alpha  occ. eigenvalues -- -145.39034-145.37867 -77.21885 -19.22812 -19.16098
 Alpha  occ. eigenvalues --  -19.15846 -19.14940 -15.46252 -15.45122 -12.59443
 Alpha  occ. eigenvalues --  -12.59376 -12.59324 -12.58356 -12.58293 -12.58108
 Alpha  occ. eigenvalues --   -6.66573  -4.82927  -4.82772  -4.82756  -1.83816
 Alpha  occ. eigenvalues --   -1.82709  -1.12143  -1.11481  -1.11460  -1.10643
 Alpha  occ. eigenvalues --   -1.10467  -1.10214  -1.07115  -0.98962  -0.95972
 Alpha  occ. eigenvalues --   -0.82868  -0.57205  -0.47934  -0.45695  -0.43173
 Alpha  occ. eigenvalues --   -0.41888  -0.36915  -0.35777  -0.33997  -0.33041
 Alpha  occ. eigenvalues --   -0.27014  -0.23998  -0.21709  -0.14817
 Alpha virt. eigenvalues --   -0.10008  -0.06579  -0.02990  -0.02676  -0.01623
 Alpha virt. eigenvalues --   -0.01401  -0.00317   0.00873   0.03495   0.05001
 Alpha virt. eigenvalues --    0.05657   0.07359   0.09131   0.10611   0.12180

 Mulliken atomic charges:
              1
     1  O   -0.626808
     2  P    0.901437
     3  Ca   0.753724
     4  H   -0.288973
     5  O   -0.416856
     6  O   -0.470047
     7  Ca   0.728383
     8  O   -0.580860
 Sum of Mulliken charges=   0.00000

 Dipole moment (field-independent basis, Debye):
    X=     5.7677    Y=    -0.4302    Z=     0.0000  Tot=     5.7837
 Quadrupole moment (field-independent basis, Debye-Ang):
   XX=   -70.8473   YY=   -95.2850   ZZ=   -67.3644
   XY=     9.3397   XZ=     0.0000   YZ=     0.0000

 Normal termination of Gaussian 03 at Mon May  4 21:04:30 2015.
