 Gaussian 03, Revision E.01,
 Gaussian 03:  EM64T-G03RevE.01 11-Sep-2007

 -------------------------------------
 # b3lyp/6-31G(d,p) pop=(ReadRadii,MK)
 -------------------------------------

 ----------
 Ca2HPO4_44
 ----------
 Symbolic Z-matrix:
 Charge =  0 Multiplicity = 1

                         Standard orientation:
 ---------------------------------------------------------------------
 Center     Atomic     Atomic              Coordinates (Angstroms)
 Number     Number      Type              X           Y           Z
 ---------------------------------------------------------------------
    1          8             0        0.475309   -1.961740    0.767065
    2          8             0        0.475309   -1.961740   -0.767065
    3         15             0        1.299990   -0.397643    0.000000
    4         20             0       -0.245993    2.201280    0.000000
    5          1             0       -2.336870    1.344620    0.000000
    6          8             0        0.475309    0.480670    1.199900
    7         20             0       -1.372650   -0.785421    0.000000
    8          8             0        0.475309    0.480670   -1.199900
 ---------------------------------------------------------------------

 SCF Done:  E(RB+HF-LYP) =  -1997.97965936     A.U. after    8 cycles

 The electronic state is 1-A'.
 Alpha  occ. eigenvalues -- -145.37941-145.36425 -77.11667 -19.10803 -19.10797
 Alpha  occ. eigenvalues --  -19.05525 -19.05525 -15.45023 -15.43419 -12.58208
 Alpha  occ. eigenvalues --  -12.58174 -12.58120 -12.56643 -12.56601 -12.56497
 Alpha  occ. eigenvalues --   -6.56496  -4.72953  -4.72706  -4.72333  -1.82514
 Alpha  occ. eigenvalues --   -1.80762  -1.10505  -1.09931  -1.09827  -1.09057
 Alpha  occ. eigenvalues --   -1.08152  -1.08098  -0.98235  -0.89085  -0.83945
 Alpha  occ. eigenvalues --   -0.74149  -0.49843  -0.36928  -0.35191  -0.34603
 Alpha  occ. eigenvalues --   -0.33803  -0.29625  -0.26966  -0.25259  -0.25124
 Alpha  occ. eigenvalues --   -0.20957  -0.19964  -0.18204  -0.17591
 Alpha virt. eigenvalues --   -0.09047  -0.05530  -0.01434  -0.00804   0.00624
 Alpha virt. eigenvalues --    0.02492   0.03620   0.05932   0.06517   0.07995
 Alpha virt. eigenvalues --    0.09739   0.10289   0.12039   0.12748   0.13407

 Mulliken atomic charges:
              1
     1  O   -0.489383
     2  O   -0.489383
     3  P    1.044540
     4  Ca   1.016039
     5  H   -0.418717
     6  O   -0.818809
     7  Ca   0.974522
     8  O   -0.818809
 Sum of Mulliken charges=   0.00000

 Dipole moment (field-independent basis, Debye):
    X=    -6.6951    Y=     8.4437    Z=     0.0000  Tot=    10.7759
 Quadrupole moment (field-independent basis, Debye-Ang):
   XX=   -66.1097   YY=   -44.7359   ZZ=   -74.6960
   XY=    15.7678   XZ=     0.0000   YZ=     0.0000

 Normal termination of Gaussian 03 at Mon May  4 20:41:36 2015.
