 Gaussian 03, Revision E.01,
 Gaussian 03:  EM64T-G03RevE.01 11-Sep-2007

 -------------------------------------
 # b3lyp/6-31G(d,p) pop=(ReadRadii,MK)
 -------------------------------------

 ----------
 Ca2HPO4_39
 ----------
 Symbolic Z-matrix:
 Charge =  0 Multiplicity = 1

                         Standard orientation:
 ---------------------------------------------------------------------
 Center     Atomic     Atomic              Coordinates (Angstroms)
 Number     Number      Type              X           Y           Z
 ---------------------------------------------------------------------
    1         20             0        0.850631   -1.634620    0.046395
    2          8             0       -1.343986   -1.321415   -0.679347
    3          8             0        2.147411    0.001159   -0.419851
    4         15             0       -1.546299   -0.001137    0.104767
    5          1             0       -2.827589   -0.004177    0.690552
    6          8             0       -1.348992    1.322005   -0.675431
    7         20             0        0.849907    1.635700    0.046011
    8          8             0       -0.453017   -0.001797    1.260860
 ---------------------------------------------------------------------

 SCF Done:  E(RB+HF-LYP) =  -1998.18465793     A.U. after    8 cycles

 The electronic state is 1-A.
 Alpha  occ. eigenvalues -- -145.33879-145.33846 -77.15637 -19.08580 -19.07767
 Alpha  occ. eigenvalues --  -19.07760 -18.98694 -15.40988 -15.40957 -12.54191
 Alpha  occ. eigenvalues --  -12.54174 -12.54159 -12.54143 -12.54030 -12.53999
 Alpha  occ. eigenvalues --   -6.60631  -4.76999  -4.76900  -4.76868  -1.78577
 Alpha  occ. eigenvalues --   -1.78495  -1.07223  -1.06329  -1.06302  -1.06078
 Alpha  occ. eigenvalues --   -1.05937  -1.05144  -0.97038  -0.89666  -0.89166
 Alpha  occ. eigenvalues --   -0.72744  -0.52416  -0.41405  -0.38179  -0.37715
 Alpha  occ. eigenvalues --   -0.31296  -0.29094  -0.27403  -0.26180  -0.26039
 Alpha  occ. eigenvalues --   -0.23328  -0.18587  -0.16901  -0.16623
 Alpha virt. eigenvalues --   -0.07030  -0.05778   0.00799   0.00823   0.02429
 Alpha virt. eigenvalues --    0.02683   0.04314   0.05250   0.07232   0.09393
 Alpha virt. eigenvalues --    0.12714   0.13888   0.14661   0.15291   0.17025

 Mulliken atomic charges:
              1
     1  Ca   1.038850
     2  O   -0.709073
     3  O   -0.906123
     4  P    1.145338
     5  H   -0.109970
     6  O   -0.708802
     7  Ca   1.039037
     8  O   -0.789258
 Sum of Mulliken charges=   0.00000

 Dipole moment (field-independent basis, Debye):
    X=     3.1596    Y=     0.0022    Z=     3.1902  Tot=     4.4900
 Quadrupole moment (field-independent basis, Debye-Ang):
   XX=   -81.5961   YY=   -33.6893   ZZ=   -69.9072
   XY=     0.0050   XZ=     1.2110   YZ=    -0.0113

 Normal termination of Gaussian 03 at Mon May  4 20:08:31 2015.
