 Gaussian 03, Revision E.01,
 Gaussian 03:  EM64T-G03RevE.01 11-Sep-2007

 -------------------------------------
 # b3lyp/6-31G(d,p) pop=(ReadRadii,MK)
 -------------------------------------

 ----------
 Ca2HPO4_23
 ----------
 Symbolic Z-matrix:
 Charge =  0 Multiplicity = 1

                         Standard orientation:
 ---------------------------------------------------------------------
 Center     Atomic     Atomic              Coordinates (Angstroms)
 Number     Number      Type              X           Y           Z
 ---------------------------------------------------------------------
    1          8             0        3.717680    0.489551   -0.001790
    2          1             0        4.615540    0.816881   -0.001504
    3         20             0        1.759530   -0.218295    0.001258
    4          8             0       -0.257525   -0.232469   -1.210760
    5         15             0       -0.944937   -1.187510   -0.002589
    6          8             0       -2.457880   -0.720173   -0.003851
    7          8             0       -0.260711   -0.242826    1.213560
    8         20             0       -1.578230    1.350450    0.001895
 ---------------------------------------------------------------------

 SCF Done:  E(RB+HF-LYP) =  -1998.16691622     A.U. after    8 cycles

 The electronic state is 1-A.
 Alpha  occ. eigenvalues -- -145.39996-145.32634 -77.12096 -19.08459 -19.08443
 Alpha  occ. eigenvalues --  -19.07846 -19.03997 -15.47010 -15.39890 -12.60167
 Alpha  occ. eigenvalues --  -12.60166 -12.60149 -12.53145 -12.53066 -12.52868
 Alpha  occ. eigenvalues --   -6.57502  -4.73832  -4.73798  -4.73430  -1.84317
 Alpha  occ. eigenvalues --   -1.77657  -1.12390  -1.11653  -1.11604  -1.05857
 Alpha  occ. eigenvalues --   -1.05388  -1.05353  -0.94521  -0.88141  -0.86605
 Alpha  occ. eigenvalues --   -0.85023  -0.49089  -0.37912  -0.36439  -0.36404
 Alpha  occ. eigenvalues --   -0.36029  -0.30257  -0.29036  -0.25766  -0.24329
 Alpha  occ. eigenvalues --   -0.22455  -0.21769  -0.21518  -0.19593
 Alpha virt. eigenvalues --   -0.10436  -0.03651  -0.01725  -0.01622   0.01841
 Alpha virt. eigenvalues --    0.02404   0.03082   0.04924   0.06613   0.08798
 Alpha virt. eigenvalues --    0.10102   0.10425   0.11679   0.12265   0.13972

 Mulliken atomic charges:
              1
     1  O   -0.830651
     2  H    0.268084
     3  Ca   1.012181
     4  O   -0.800734
     5  P    0.966618
     6  O   -0.714228
     7  O   -0.799922
     8  Ca   0.898651
 Sum of Mulliken charges=   0.00000

 Dipole moment (field-independent basis, Debye):
    X=    -1.3978    Y=     7.3254    Z=     0.0256  Tot=     7.4577
 Quadrupole moment (field-independent basis, Debye-Ang):
   XX=   -73.9013   YY=   -52.5238   ZZ=   -73.0116
   XY=   -21.2014   XZ=     0.0083   YZ=     0.0458

 Normal termination of Gaussian 03 at Mon May  4 20:08:25 2015.
