 Gaussian 03, Revision E.01,
 Gaussian 03:  EM64T-G03RevE.01 11-Sep-2007

 -------------------------------------
 # b3lyp/6-31G(d,p) pop=(ReadRadii,MK)
 -------------------------------------

 ----------
 Ca2HPO4_17
 ----------
 Symbolic Z-matrix:
 Charge =  0 Multiplicity = 1

                         Standard orientation:
 ---------------------------------------------------------------------
 Center     Atomic     Atomic              Coordinates (Angstroms)
 Number     Number      Type              X           Y           Z
 ---------------------------------------------------------------------
    1          8             0        3.081370    0.679556   -0.300187
    2         15             0        1.619180    0.297321   -0.333625
    3          8             0        1.283231   -0.916565    1.044800
    4          1             0        1.629521   -0.609673    1.893760
    5         20             0       -1.020640    1.736741    0.158540
    6          8             0       -1.867940   -0.080846   -0.886051
    7          8             0       -1.957709   -0.254270    0.663594
    8         20             0       -0.490802   -1.700398   -0.211873
 ---------------------------------------------------------------------

 SCF Done:  E(RB+HF-LYP) =  -1997.97700450     A.U. after   12 cycles

 The electronic state is 1-A.
 Alpha  occ. eigenvalues -- -145.36918-145.35663 -77.10085 -19.15066 -19.09597
 Alpha  occ. eigenvalues --  -19.09543 -19.08115 -15.44005 -15.42802 -12.57229
 Alpha  occ. eigenvalues --  -12.57154 -12.57084 -12.56003 -12.55977 -12.55850
 Alpha  occ. eigenvalues --   -6.56293  -4.72809  -4.72271  -4.72175  -1.81485
 Alpha  occ. eigenvalues --   -1.80263  -1.09804  -1.09309  -1.08928  -1.07892
 Alpha  occ. eigenvalues --   -1.07849  -1.07531  -0.98137  -0.92522  -0.91612
 Alpha  occ. eigenvalues --   -0.73455  -0.54859  -0.44724  -0.36972  -0.34998
 Alpha  occ. eigenvalues --   -0.33310  -0.32073  -0.30845  -0.29852  -0.28564
 Alpha  occ. eigenvalues --   -0.24663  -0.20674  -0.18387  -0.12822
 Alpha virt. eigenvalues --   -0.08662  -0.06507  -0.02702  -0.00723   0.00354
 Alpha virt. eigenvalues --    0.00859   0.02974   0.03241   0.05134   0.05955
 Alpha virt. eigenvalues --    0.08118   0.08770   0.09499   0.12114   0.13187

 Mulliken atomic charges:
              1
     1  O   -0.551473
     2  P    0.331214
     3  O   -0.722638
     4  H    0.331470
     5  Ca   0.788089
     6  O   -0.591577
     7  O   -0.592100
     8  Ca   1.007017
 Sum of Mulliken charges=   0.00000

 Dipole moment (field-independent basis, Debye):
    X=    -3.8125    Y=    -3.3307    Z=     1.4309  Tot=     5.2608
 Quadrupole moment (field-independent basis, Debye-Ang):
   XX=   -96.3948   YY=   -46.4501   ZZ=   -65.5008
   XY=    -6.0498   XZ=     3.1178   YZ=     1.9940

 Normal termination of Gaussian 03 at Mon May  4 20:08:28 2015.
