 Gaussian 03, Revision E.01,
 Gaussian 03:  EM64T-G03RevE.01 11-Sep-2007

 -------------------------------------
 # b3lyp/6-31G(d,p) pop=(ReadRadii,MK)
 -------------------------------------

 ---------
 Ca2HPO4_4
 ---------
 Symbolic Z-matrix:
 Charge =  0 Multiplicity = 1

                         Standard orientation:
 ---------------------------------------------------------------------
 Center     Atomic     Atomic              Coordinates (Angstroms)
 Number     Number      Type              X           Y           Z
 ---------------------------------------------------------------------
    1          8             0       -1.976399   -0.357938    0.789331
    2          8             0       -1.982719   -0.440103   -0.748019
    3         15             0       -3.260979    0.659057   -0.030462
    4          8             0       -4.573969   -0.031195    0.011957
    5         20             0        0.210641   -0.359343    0.009589
    6          8             0        2.301611   -0.094829   -0.012581
    7         20             0        4.402691    0.209601   -0.003491
    8          1             0        6.499821    0.501487    0.009458
 ---------------------------------------------------------------------

 SCF Done:  E(RB+HF-LYP) =  -1997.96120798     A.U. after    7 cycles

 The electronic state is 1-A.
 Alpha  occ. eigenvalues -- -145.36219-145.34988 -77.15350 -19.20391 -19.20383
 Alpha  occ. eigenvalues --  -19.10788 -19.02162 -15.43500 -15.42384 -12.56744
 Alpha  occ. eigenvalues --  -12.56704 -12.56445 -12.55612 -12.55612 -12.55275
 Alpha  occ. eigenvalues --   -6.61019  -4.77412  -4.77312  -4.76717  -1.81279
 Alpha  occ. eigenvalues --   -1.80230  -1.11349  -1.09369  -1.09210  -1.08339
 Alpha  occ. eigenvalues --   -1.08334  -1.06719  -1.05927  -0.95281  -0.84330
 Alpha  occ. eigenvalues --   -0.76627  -0.56172  -0.44232  -0.42514  -0.40449
 Alpha  occ. eigenvalues --   -0.37581  -0.31376  -0.28815  -0.27437  -0.25300
 Alpha  occ. eigenvalues --   -0.24217  -0.21046  -0.21035  -0.21015
 Alpha virt. eigenvalues --   -0.07181  -0.04762  -0.04415  -0.02065  -0.01911
 Alpha virt. eigenvalues --   -0.00967  -0.00282   0.01349   0.04678   0.05300
 Alpha virt. eigenvalues --    0.06209   0.08712   0.10580   0.12569   0.12989

 Mulliken atomic charges:
              1
     1  O   -0.465561
     2  O   -0.465398
     3  P    0.775302
     4  O   -0.514739
     5  Ca   1.076045
     6  O   -0.941971
     7  Ca   0.809234
     8  H   -0.272911
 Sum of Mulliken charges=   0.00000

 Dipole moment (field-independent basis, Debye):
    X=     3.7644    Y=    -0.2078    Z=    -0.0308  Tot=     3.7703
 Quadrupole moment (field-independent basis, Debye-Ang):
   XX=  -137.2787   YY=   -62.6294   ZZ=   -62.2320
   XY=    -8.5604   XZ=     0.2079   YZ=    -0.0051

 Normal termination of Gaussian 03 at Mon May  4 20:08:37 2015.
