 Gaussian 03, Revision E.01,
 Gaussian 03:  EM64T-G03RevE.01 11-Sep-2007

 --------------------------------------------
 # b3lyp/6-31G(d,p) pop=(ReadRadii,MK) scf=qc
 --------------------------------------------

 ----------
 Ca2HPO4_26
 ----------
 Symbolic Z-matrix:
 Charge =  0 Multiplicity = 1

                         Standard orientation:
 ---------------------------------------------------------------------
 Center     Atomic     Atomic              Coordinates (Angstroms)
 Number     Number      Type              X           Y           Z
 ---------------------------------------------------------------------
    1          8             0        0.000000    1.180370    0.000000
    2          8             0       -4.066510    0.197464    0.000000
    3          8             0       -3.854029   -1.166422    0.000000
    4         20             0       -1.802609   -0.160880    0.000000
    5          8             0        0.223495   -1.342550    0.000000
    6         15             0        1.229180    0.172068    0.000000
    7          1             0        0.725229   -2.165970    0.000000
    8         20             0        3.923280    0.592582    0.000000
 ---------------------------------------------------------------------

 SCF Done:  E(RB+HF-LYP) =  -1997.84935953     a.u. after   70 cycles

 The electronic state is 1-A'.
 Alpha  occ. eigenvalues -- -145.43459-145.35032 -77.10105 -19.17259 -19.13028
 Alpha  occ. eigenvalues --  -19.12810 -19.08955 -15.50586 -15.42240 -12.63796
 Alpha  occ. eigenvalues --  -12.63697 -12.63691 -12.55494 -12.55403 -12.55248
 Alpha  occ. eigenvalues --   -6.56363  -4.72976  -4.72457  -4.72025  -1.87775
 Alpha  occ. eigenvalues --   -1.79880  -1.15363  -1.14929  -1.14922  -1.08900
 Alpha  occ. eigenvalues --   -1.07925  -1.07552  -1.01588  -0.99879  -0.91477
 Alpha  occ. eigenvalues --   -0.70747  -0.56603  -0.47924  -0.39281  -0.37180
 Alpha  occ. eigenvalues --   -0.36193  -0.34862  -0.33594  -0.32715  -0.29308
 Alpha  occ. eigenvalues --   -0.27829  -0.15485  -0.15404  -0.13035
 Alpha virt. eigenvalues --   -0.14098  -0.06500  -0.03838  -0.03280  -0.02120
 Alpha virt. eigenvalues --   -0.00250   0.01455   0.02574   0.02912   0.06157
 Alpha virt. eigenvalues --    0.08729   0.09447   0.09769   0.10760   0.12426

 Mulliken atomic charges:
              1
     1  O   -0.743867
     2  O   -0.369148
     3  O   -0.368269
     4  Ca   1.200594
     5  O   -0.716313
     6  P    0.281685
     7  H    0.328632
     8  Ca   0.386687
 Sum of Mulliken charges=   0.00000

 Dipole moment (field-independent basis, Debye):
    X=     9.5161    Y=    -1.2167    Z=     0.0000  Tot=     9.5935
 Quadrupole moment (field-independent basis, Debye-Ang):
   XX=   -83.1199   YY=   -68.0118   ZZ=   -73.4351
   XY=    -2.7780   XZ=     0.0000   YZ=     0.0000

 Normal termination of Gaussian 03 at Mon May  4 21:06:02 2015.
