 Gaussian 03, Revision E.01,
 Gaussian 03:  EM64T-G03RevE.01 11-Sep-2007

 -------------------------------------
 # b3lyp/6-31G(d,p) pop=(ReadRadii,MK)
 -------------------------------------

 ----------
 Ca2HPO4_43
 ----------
 Symbolic Z-matrix:
 Charge =  0 Multiplicity = 1

                         Standard orientation:
 ---------------------------------------------------------------------
 Center     Atomic     Atomic              Coordinates (Angstroms)
 Number     Number      Type              X           Y           Z
 ---------------------------------------------------------------------
    1          8             0        0.954289    1.444889    0.024463
    2          8             0        2.118790   -0.813259   -0.011761
    3         15             0        2.302950    0.721782    0.026038
    4         20             0       -1.396990    1.734778   -0.009381
    5          1             0       -2.287670    3.651748   -0.001891
    6          8             0       -1.628180   -0.412318   -0.073793
    7          8             0       -2.113029   -1.841812    0.122969
    8         20             0        0.051413   -1.809702   -0.034804
 ---------------------------------------------------------------------

 SCF Done:  E(RB+HF-LYP) =  -1998.03155302     A.U. after    8 cycles

 The electronic state is 1-A.
 Alpha  occ. eigenvalues -- -145.37547-145.33547 -77.18040 -19.16510 -19.15834
 Alpha  occ. eigenvalues --  -19.09299 -19.07065 -15.44720 -15.40802 -12.57977
 Alpha  occ. eigenvalues --  -12.57896 -12.57712 -12.54051 -12.53954 -12.53803
 Alpha  occ. eigenvalues --   -6.63806  -4.80244  -4.79997  -4.79585  -1.82361
 Alpha  occ. eigenvalues --   -1.78442  -1.10423  -1.10385  -1.09893  -1.06557
 Alpha  occ. eigenvalues --   -1.06299  -1.05600  -1.02244  -0.96879  -0.91873
 Alpha  occ. eigenvalues --   -0.71442  -0.55769  -0.45148  -0.41496  -0.41298
 Alpha  occ. eigenvalues --   -0.33890  -0.33844  -0.32307  -0.30579  -0.29480
 Alpha  occ. eigenvalues --   -0.28616  -0.19309  -0.17858  -0.15692
 Alpha virt. eigenvalues --   -0.08247  -0.08194  -0.02230  -0.01951   0.00525
 Alpha virt. eigenvalues --    0.00975   0.02250   0.02298   0.05928   0.06600
 Alpha virt. eigenvalues --    0.08369   0.09425   0.10331   0.11781   0.13613

 Mulliken atomic charges:
              1
     1  O   -0.642682
     2  O   -0.679186
     3  P    0.728776
     4  Ca   0.917535
     5  H   -0.293465
     6  O   -0.648979
     7  O   -0.511505
     8  Ca   1.129506
 Sum of Mulliken charges=   0.00000

 Dipole moment (field-independent basis, Debye):
    X=     6.6860    Y=    -6.8695    Z=    -0.3629  Tot=     9.5930
 Quadrupole moment (field-independent basis, Debye-Ang):
   XX=   -92.4517   YY=   -78.7528   ZZ=   -58.8051
   XY=     1.0873   XZ=     0.3002   YZ=     0.9415

 Normal termination of Gaussian 03 at Mon May  4 20:08:36 2015.
