 Gaussian 03, Revision E.01,
 Gaussian 03:  EM64T-G03RevE.01 11-Sep-2007

 -------------------------------------
 # b3lyp/6-31G(d,p) pop=(ReadRadii,MK)
 -------------------------------------

 ----------
 Ca2HPO4_56
 ----------
 Symbolic Z-matrix:
 Charge =  0 Multiplicity = 1

                         Standard orientation:
 ---------------------------------------------------------------------
 Center     Atomic     Atomic              Coordinates (Angstroms)
 Number     Number      Type              X           Y           Z
 ---------------------------------------------------------------------
    1          8             0        3.521690    0.726970    0.000000
    2         15             0        1.772070    0.658179    0.000000
    3          1             0        3.897560   -0.171681    0.000000
    4          8             0        0.000000    0.797233    0.000000
    5         20             0       -2.184150    1.156851    0.000000
    6          8             0       -2.531940   -0.935255    0.000000
    7         20             0       -0.438012   -1.507600    0.000000
    8          8             0        1.755830   -0.924702    0.000000
 ---------------------------------------------------------------------

 SCF Done:  E(RB+HF-LYP) =  -1998.04955988     A.U. after   11 cycles

 The electronic state is 1-A'.
 Alpha  occ. eigenvalues -- -145.35747-145.31912 -77.12853 -19.08122 -19.07901
 Alpha  occ. eigenvalues --  -19.05997 -18.99737 -15.42842 -15.39163 -12.56062
 Alpha  occ. eigenvalues --  -12.55988 -12.55896 -12.52410 -12.52335 -12.52134
 Alpha  occ. eigenvalues --   -6.57573  -4.73989  -4.73859  -4.73476  -1.80354
 Alpha  occ. eigenvalues --   -1.76984  -1.08255  -1.08037  -1.07342  -1.05152
 Alpha  occ. eigenvalues --   -1.04830  -1.04037  -0.94584  -0.89408  -0.84140
 Alpha  occ. eigenvalues --   -0.73621  -0.51518  -0.41227  -0.36859  -0.33103
 Alpha  occ. eigenvalues --   -0.31961  -0.26394  -0.25081  -0.23951  -0.22641
 Alpha  occ. eigenvalues --   -0.19308  -0.18198  -0.17662  -0.15205
 Alpha virt. eigenvalues --   -0.08818  -0.04764  -0.01641  -0.01579   0.00444
 Alpha virt. eigenvalues --    0.00500   0.01162   0.03546   0.04065   0.06590
 Alpha virt. eigenvalues --    0.09394   0.12616   0.13465   0.14877   0.15135

 Mulliken atomic charges:
              1
     1  O   -0.611360
     2  P    0.845637
     3  H    0.282374
     4  O   -0.849450
     5  Ca   1.013289
     6  O   -0.887152
     7  Ca   0.943957
     8  O   -0.737295
 Sum of Mulliken charges=   0.00000

 Dipole moment (field-independent basis, Debye):
    X=    -5.9893    Y=     0.5253    Z=     0.0000  Tot=     6.0123
 Quadrupole moment (field-independent basis, Debye-Ang):
   XX=   -83.1181   YY=   -50.3793   ZZ=   -61.6161
   XY=   -27.3859   XZ=     0.0000   YZ=     0.0000

 Normal termination of Gaussian 03 at Mon May  4 20:41:34 2015.
