 Gaussian 03, Revision E.01,
 Gaussian 03:  EM64T-G03RevE.01 11-Sep-2007

 -------------------------------------
 # b3lyp/6-31G(d,p) pop=(ReadRadii,MK)
 -------------------------------------

 ----------
 Ca2HPO4_63
 ----------
 Symbolic Z-matrix:
 Charge =  0 Multiplicity = 1

                         Standard orientation:
 ---------------------------------------------------------------------
 Center     Atomic     Atomic              Coordinates (Angstroms)
 Number     Number      Type              X           Y           Z
 ---------------------------------------------------------------------
    1          8             0       -2.560349   -1.244990    0.043295
    2         15             0       -3.471189    0.000686    0.000179
    3          8             0       -2.558679    1.245150   -0.044189
    4         20             0       -0.531037   -0.001093    0.000272
    5          8             0        1.556481    0.070193    0.785449
    6          8             0        1.556441   -0.068487   -0.785421
    7         20             0        3.648881   -0.000211   -0.000018
    8          1             0        5.759811    0.000849   -0.000845
 ---------------------------------------------------------------------

 SCF Done:  E(RB+HF-LYP) =  -1998.07640084     A.U. after    6 cycles

 The electronic state is 1-A.
 Alpha  occ. eigenvalues -- -145.35004-145.34952 -77.15834 -19.13897 -19.13818
 Alpha  occ. eigenvalues --  -19.11730 -19.11723 -15.42338 -15.42180 -12.55585
 Alpha  occ. eigenvalues --  -12.55528 -12.55397 -12.55384 -12.55274 -12.55178
 Alpha  occ. eigenvalues --   -6.61755  -4.78188  -4.77921  -4.77550  -1.80087
 Alpha  occ. eigenvalues --   -1.79879  -1.08761  -1.08194  -1.07929  -1.07816
 Alpha  occ. eigenvalues --   -1.07717  -1.07072  -1.00244  -0.94399  -0.93700
 Alpha  occ. eigenvalues --   -0.75912  -0.52707  -0.41381  -0.39865  -0.39297
 Alpha  occ. eigenvalues --   -0.35485  -0.34399  -0.32534  -0.30950  -0.29768
 Alpha  occ. eigenvalues --   -0.27409  -0.24231  -0.21413  -0.19880
 Alpha virt. eigenvalues --   -0.06380  -0.04145  -0.02477  -0.02353  -0.01106
 Alpha virt. eigenvalues --    0.00743   0.01357   0.04258   0.05518   0.05663
 Alpha virt. eigenvalues --    0.08294   0.08500   0.11713   0.13728   0.13824

 Mulliken atomic charges:
              1
     1  O   -0.646473
     2  P    0.743599
     3  O   -0.648368
     4  Ca   1.125498
     5  O   -0.616735
     6  O   -0.616633
     7  Ca   0.938118
     8  H   -0.279007
 Sum of Mulliken charges=   0.00000

 Dipole moment (field-independent basis, Debye):
    X=    -1.4202    Y=    -0.0249    Z=     0.0061  Tot=     1.4204
 Quadrupole moment (field-independent basis, Debye-Ang):
   XX=  -108.1463   YY=   -68.8635   ZZ=   -62.2947
   XY=    -0.0052   XZ=     0.0083   YZ=     0.0165

 Normal termination of Gaussian 03 at Mon May  4 20:08:40 2015.
