 Gaussian 03, Revision E.01,
 Gaussian 03:  EM64T-G03RevE.01 11-Sep-2007

 -------------------------------------
 # b3lyp/6-31G(d,p) pop=(ReadRadii,MK)
 -------------------------------------

 ----------
 Ca2HPO4_66
 ----------
 Symbolic Z-matrix:
 Charge =  0 Multiplicity = 1

                         Standard orientation:
 ---------------------------------------------------------------------
 Center     Atomic     Atomic              Coordinates (Angstroms)
 Number     Number      Type              X           Y           Z
 ---------------------------------------------------------------------
    1          8             0       -2.257464   -1.977598    0.093713
    2         15             0       -0.932513   -1.333764    0.095994
    3          8             0        0.361903   -1.870600   -0.478586
    4          8             0       -0.692657    0.110299    0.624320
    5         20             0       -1.654486    2.144774   -0.125747
    6         20             0        1.692640    0.096197   -0.161784
    7          8             0        3.669389    0.540877    0.243145
    8          1             0        4.575248    0.763199    0.449963
 ---------------------------------------------------------------------

 SCF Done:  E(RB+HF-LYP) =  -1998.12216550     A.U. after   12 cycles

 The electronic state is 1-A.
 Alpha  occ. eigenvalues -- -145.40101-145.36950 -77.24003 -19.19175 -19.17553
 Alpha  occ. eigenvalues --  -19.16724 -19.05124 -15.47251 -15.44105 -12.60405
 Alpha  occ. eigenvalues --  -12.60400 -12.60327 -12.57342 -12.57296 -12.57117
 Alpha  occ. eigenvalues --   -6.69343  -4.85896  -4.85502  -4.85402  -1.84511
 Alpha  occ. eigenvalues --   -1.81641  -1.12050  -1.11887  -1.11819  -1.09975
 Alpha  occ. eigenvalues --   -1.09521  -1.09335  -1.06247  -0.99659  -0.99263
 Alpha  occ. eigenvalues --   -0.86291  -0.55898  -0.47187  -0.45648  -0.45312
 Alpha  occ. eigenvalues --   -0.39844  -0.38243  -0.36718  -0.35970  -0.34409
 Alpha  occ. eigenvalues --   -0.32017  -0.22919  -0.22901  -0.16150
 Alpha virt. eigenvalues --   -0.08257  -0.05699  -0.04720  -0.03582  -0.01641
 Alpha virt. eigenvalues --   -0.00455   0.00474   0.02727   0.04098   0.05195
 Alpha virt. eigenvalues --    0.08482   0.10137   0.10662   0.12247   0.12870

 Mulliken atomic charges:
              1
     1  O   -0.467901
     2  P    1.119643
     3  O   -0.606396
     4  O   -0.683167
     5  Ca   0.192786
     6  Ca   0.993871
     7  O   -0.823449
     8  H    0.274613
 Sum of Mulliken charges=   0.00000

 Dipole moment (field-independent basis, Debye):
    X=    -0.6089    Y=     2.4494    Z=     0.3314  Tot=     2.5456
 Quadrupole moment (field-independent basis, Debye-Ang):
   XX=   -81.4697   YY=   -80.6424   ZZ=   -71.2363
   XY=    -9.1487   XZ=    -2.1411   YZ=     0.3834

 Normal termination of Gaussian 03 at Mon May  4 20:08:47 2015.
