 Gaussian 03, Revision E.01,
 Gaussian 03:  EM64T-G03RevE.01 11-Sep-2007

 -------------------------------------
 # b3lyp/6-31G(d,p) pop=(ReadRadii,MK)
 -------------------------------------

 ---------
 Ca2HPO4_8
 ---------
 Symbolic Z-matrix:
 Charge =  0 Multiplicity = 1

                         Standard orientation:
 ---------------------------------------------------------------------
 Center     Atomic     Atomic              Coordinates (Angstroms)
 Number     Number      Type              X           Y           Z
 ---------------------------------------------------------------------
    1         20             0        2.099930   -0.599979    0.000169
    2          1             0        3.614520   -2.072651   -0.002975
    3          8             0       -0.065846   -0.262951   -1.205180
    4         15             0       -0.139967    0.850671   -0.000062
    5          8             0        1.143870    1.667959    0.000145
    6          8             0       -1.601190    1.367659   -0.004022
    7         20             0       -1.938180   -0.940246    0.000039
    8          8             0       -0.070581   -0.258036    1.209030
 ---------------------------------------------------------------------

 SCF Done:  E(RB+HF-LYP) =  -1998.15353922     A.U. after    8 cycles

 The electronic state is 1-A.
 Alpha  occ. eigenvalues -- -145.43745-145.34084 -77.16987 -19.08422 -19.08079
 Alpha  occ. eigenvalues --  -19.07945 -19.07941 -15.50670 -15.41269 -12.63837
 Alpha  occ. eigenvalues --  -12.63832 -12.63828 -12.54475 -12.54471 -12.54281
 Alpha  occ. eigenvalues --   -6.61721  -4.78069  -4.78065  -4.77978  -1.87835
 Alpha  occ. eigenvalues --   -1.78791  -1.15875  -1.15066  -1.15027  -1.06586
 Alpha  occ. eigenvalues --   -1.06503  -1.06266  -0.98235  -0.90865  -0.89135
 Alpha  occ. eigenvalues --   -0.87534  -0.48242  -0.39012  -0.38625  -0.38304
 Alpha  occ. eigenvalues --   -0.31215  -0.31199  -0.30914  -0.28294  -0.26386
 Alpha  occ. eigenvalues --   -0.24808  -0.23579  -0.21956  -0.19689
 Alpha virt. eigenvalues --   -0.12757  -0.03522  -0.02764  -0.00204   0.01261
 Alpha virt. eigenvalues --    0.01842   0.01927   0.05042   0.06618   0.09832
 Alpha virt. eigenvalues --    0.10198   0.11126   0.13087   0.15403   0.15661

 Mulliken atomic charges:
              1
     1  Ca   0.777809
     2  H   -0.308698
     3  O   -0.825902
     4  P    1.415341
     5  O   -0.678922
     6  O   -0.707866
     7  Ca   1.153451
     8  O   -0.825214
 Sum of Mulliken charges=   0.00000

 Dipole moment (field-independent basis, Debye):
    X=   -10.4248    Y=    -7.0907    Z=     0.0098  Tot=    12.6078
 Quadrupole moment (field-independent basis, Debye-Ang):
   XX=   -57.0282   YY=   -75.0186   ZZ=   -71.3788
   XY=    30.8648   XZ=     0.0327   YZ=    -0.0204

 Normal termination of Gaussian 03 at Mon May  4 20:08:51 2015.
