 Gaussian 03, Revision E.01,
 Gaussian 03:  EM64T-G03RevE.01 11-Sep-2007

 -------------------------------------
 # b3lyp/6-31G(d,p) pop=(ReadRadii,MK)
 -------------------------------------

 ----------
 Ca2HPO4_15
 ----------
 Symbolic Z-matrix:
 Charge =  0 Multiplicity = 1

                         Standard orientation:
 ---------------------------------------------------------------------
 Center     Atomic     Atomic              Coordinates (Angstroms)
 Number     Number      Type              X           Y           Z
 ---------------------------------------------------------------------
    1          8             0       -1.445191   -1.294047   -0.057099
    2         15             0       -2.278319   -0.000918   -0.067491
    3          8             0        1.101681    0.000069    1.625780
    4          1             0        0.649167    0.000039    2.475980
    5          8             0       -1.446656    1.293183   -0.057835
    6          8             0        1.579491    0.000894   -1.366520
    7         20             0        0.879476    1.549588   -0.065199
    8         20             0        0.881075   -1.548942   -0.065713
 ---------------------------------------------------------------------

 SCF Done:  E(RB+HF-LYP) =  -1998.16533115     A.U. after    8 cycles

 The electronic state is 1-A.
 Alpha  occ. eigenvalues -- -145.31816-145.31815 -77.14014 -19.12092 -19.12089
 Alpha  occ. eigenvalues --  -19.07000 -18.97049 -15.38951 -15.38949 -12.52151
 Alpha  occ. eigenvalues --  -12.52151 -12.52090 -12.52089 -12.52030 -12.52029
 Alpha  occ. eigenvalues --   -6.59725  -4.76160  -4.75926  -4.75521  -1.76660
 Alpha  occ. eigenvalues --   -1.76527  -1.05276  -1.04522  -1.04350  -1.04112
 Alpha  occ. eigenvalues --   -1.03837  -1.03324  -0.97919  -0.92829  -0.88406
 Alpha  occ. eigenvalues --   -0.71065  -0.51475  -0.40900  -0.39814  -0.37214
 Alpha  occ. eigenvalues --   -0.36901  -0.29675  -0.28459  -0.26363  -0.25480
 Alpha  occ. eigenvalues --   -0.24061  -0.16783  -0.15345  -0.14884
 Alpha virt. eigenvalues --   -0.06126  -0.04852  -0.03991   0.00998   0.01765
 Alpha virt. eigenvalues --    0.02287   0.02342   0.04800   0.06036   0.07614
 Alpha virt. eigenvalues --    0.09556   0.13192   0.13329   0.14995   0.16729

 Mulliken atomic charges:
              1
     1  O   -0.660357
     2  P    0.710030
     3  O   -0.841386
     4  H    0.277527
     5  O   -0.660311
     6  O   -0.890329
     7  Ca   1.032367
     8  Ca   1.032459
 Sum of Mulliken charges=   0.00000

 Dipole moment (field-independent basis, Debye):
    X=     1.4403    Y=    -0.0003    Z=     3.4765  Tot=     3.7631
 Quadrupole moment (field-independent basis, Debye-Ang):
   XX=   -76.6174   YY=   -37.9377   ZZ=   -72.9598
   XY=    -0.0182   XZ=     5.3596   YZ=     0.0145

 Normal termination of Gaussian 03 at Mon May  4 20:41:37 2015.
