 Gaussian 03, Revision E.01,
 Gaussian 03:  EM64T-G03RevE.01 11-Sep-2007

 -------------------------------------
 # b3lyp/6-31G(d,p) pop=(ReadRadii,MK)
 -------------------------------------

 ----------
 Ca2HPO4_14
 ----------
 Symbolic Z-matrix:
 Charge =  0 Multiplicity = 1

                         Standard orientation:
 ---------------------------------------------------------------------
 Center     Atomic     Atomic              Coordinates (Angstroms)
 Number     Number      Type              X           Y           Z
 ---------------------------------------------------------------------
    1          8             0       -1.774979   -1.242601   -0.063509
    2          8             0       -4.129740   -0.000425   -0.052214
    3         15             0       -2.656790    0.000574   -0.050899
    4          8             0       -1.776030    1.244459   -0.040454
    5         20             0        0.267699    0.001646   -0.081642
    6         20             0        3.829610    0.004529   -0.378567
    7          8             0        2.139320   -0.014343    1.139490
    8          1             0        2.237090   -0.028839    2.101180
 ---------------------------------------------------------------------

 SCF Done:  E(RB+HF-LYP) =  -1998.14386377     A.U. after    7 cycles

 The electronic state is 1-A.
 Alpha  occ. eigenvalues -- -145.38347-145.38080 -77.21561 -19.15637 -19.15634
 Alpha  occ. eigenvalues --  -19.14696 -19.12109 -15.45499 -15.45267 -12.58714
 Alpha  occ. eigenvalues --  -12.58682 -12.58536 -12.58439 -12.58428 -12.58309
 Alpha  occ. eigenvalues --   -6.67054  -4.83647  -4.83152  -4.83108  -1.82985
 Alpha  occ. eigenvalues --   -1.82643  -1.11150  -1.10741  -1.10614  -1.10138
 Alpha  occ. eigenvalues --   -1.10112  -1.09781  -1.04567  -0.97433  -0.96880
 Alpha  occ. eigenvalues --   -0.93493  -0.52611  -0.45539  -0.44213  -0.43208
 Alpha  occ. eigenvalues --   -0.42824  -0.36801  -0.33646  -0.32891  -0.32478
 Alpha  occ. eigenvalues --   -0.32099  -0.30003  -0.29397  -0.15400
 Alpha virt. eigenvalues --   -0.08094  -0.04883  -0.04169  -0.03052  -0.00928
 Alpha virt. eigenvalues --   -0.00582   0.00655   0.01075   0.04232   0.06418
 Alpha virt. eigenvalues --    0.09208   0.10512   0.10653   0.12412   0.13432

 Mulliken atomic charges:
              1
     1  O   -0.643434
     2  O   -0.488174
     3  P    1.144533
     4  O   -0.643323
     5  Ca   0.923138
     6  Ca   0.231189
     7  O   -0.823564
     8  H    0.299634
 Sum of Mulliken charges=   0.00000

 Dipole moment (field-independent basis, Debye):
    X=     5.8200    Y=    -0.0216    Z=     1.7441  Tot=     6.0757
 Quadrupole moment (field-independent basis, Debye-Ang):
   XX=   -87.6654   YY=   -79.3750   ZZ=   -69.1380
   XY=    -0.0900   XZ=     6.1310   YZ=    -0.1042

 Normal termination of Gaussian 03 at Mon May  4 20:08:27 2015.
