 Gaussian 03, Revision E.01,
 Gaussian 03:  EM64T-G03RevE.01 11-Sep-2007

 -------------------------------------
 # b3lyp/6-31G(d,p) pop=(ReadRadii,MK)
 -------------------------------------

 ----------
 Ca2HPO4_29
 ----------
 Symbolic Z-matrix:
 Charge =  0 Multiplicity = 1

                         Standard orientation:
 ---------------------------------------------------------------------
 Center     Atomic     Atomic              Coordinates (Angstroms)
 Number     Number      Type              X           Y           Z
 ---------------------------------------------------------------------
    1          8             0        0.002167    0.822492    1.466490
    2          8             0       -0.001476   -0.695328    1.140670
    3          8             0        1.306936    1.093165   -0.743289
    4         15             0        0.002708    1.483630   -0.036153
    5          1             0        0.004706    2.836790    0.337129
    6          8             0       -1.302814    1.096565   -0.742659
    7         20             0        1.839924   -1.093213   -0.219105
    8         20             0       -1.844116   -1.088107   -0.219122
 ---------------------------------------------------------------------

 SCF Done:  E(RB+HF-LYP) =  -1998.05074515     A.U. after   10 cycles

 The electronic state is 1-A.
 Alpha  occ. eigenvalues -- -145.38225-145.38200 -77.19600 -19.18251 -19.15344
 Alpha  occ. eigenvalues --  -19.11479 -19.11453 -15.45330 -15.45307 -12.58540
 Alpha  occ. eigenvalues --  -12.58516 -12.58462 -12.58439 -12.58418 -12.58394
 Alpha  occ. eigenvalues --   -6.64654  -4.81076  -4.80880  -4.80856  -1.82646
 Alpha  occ. eigenvalues --   -1.82617  -1.10746  -1.10285  -1.10233  -1.10075
 Alpha  occ. eigenvalues --   -1.09986  -1.09823  -1.04771  -0.97662  -0.93649
 Alpha  occ. eigenvalues --   -0.83570  -0.56788  -0.46209  -0.44519  -0.42097
 Alpha  occ. eigenvalues --   -0.38778  -0.37799  -0.32342  -0.31042  -0.30430
 Alpha  occ. eigenvalues --   -0.28987  -0.27254  -0.25087  -0.13975
 Alpha virt. eigenvalues --   -0.09080  -0.04170  -0.02848  -0.00780  -0.00559
 Alpha virt. eigenvalues --    0.00134   0.01435   0.03059   0.05663   0.08216
 Alpha virt. eigenvalues --    0.08842   0.10232   0.12322   0.13235   0.13366

 Mulliken atomic charges:
              1
     1  O   -0.385224
     2  O   -0.537889
     3  O   -0.693546
     4  P    1.175334
     5  H   -0.079665
     6  O   -0.694035
     7  Ca   0.609530
     8  Ca   0.605494
 Sum of Mulliken charges=   0.00000

 Dipole moment (field-independent basis, Debye):
    X=     0.0489    Y=    -1.2362    Z=     0.0934  Tot=     1.2407
 Quadrupole moment (field-independent basis, Debye-Ang):
   XX=   -57.1224   YY=   -79.0880   ZZ=   -80.1797
   XY=    -0.1218   XZ=    -0.0161   YZ=     1.8512

 Normal termination of Gaussian 03 at Mon May  4 20:08:33 2015.
