 Gaussian 03, Revision E.01,
 Gaussian 03:  EM64T-G03RevE.01 11-Sep-2007

 -------------------------------------
 # b3lyp/6-31G(d,p) pop=(ReadRadii,MK)
 -------------------------------------

 ----------
 Ca2HPO4_75
 ----------
 Symbolic Z-matrix:
 Charge =  0 Multiplicity = 1

                         Standard orientation:
 ---------------------------------------------------------------------
 Center     Atomic     Atomic              Coordinates (Angstroms)
 Number     Number      Type              X           Y           Z
 ---------------------------------------------------------------------
    1          8             0       -2.195479    0.818787   -0.396551
    2          8             0        0.319235    1.661310   -0.575467
    3         15             0       -0.847825    1.202430    0.365516
    4         20             0        1.850091    0.060966    0.018994
    5          8             0        3.674372   -0.931101   -0.165142
    6          1             0        4.516112   -1.375099   -0.252296
    7          8             0       -0.311252   -0.351329    0.836892
    8         20             0       -2.034778   -1.373101   -0.160409
 ---------------------------------------------------------------------

 SCF Done:  E(RB+HF-LYP) =  -1998.16433477     A.U. after    9 cycles

 The electronic state is 1-A.
 Alpha  occ. eigenvalues -- -145.40396-145.31632 -77.12910 -19.10141 -19.09293
 Alpha  occ. eigenvalues --  -19.07958 -19.03126 -15.47495 -15.38928 -12.60704
 Alpha  occ. eigenvalues --  -12.60614 -12.60593 -12.52180 -12.52104 -12.51897
 Alpha  occ. eigenvalues --   -6.58125  -4.74508  -4.74390  -4.74106  -1.84876
 Alpha  occ. eigenvalues --   -1.76762  -1.12595  -1.12525  -1.12126  -1.04953
 Alpha  occ. eigenvalues --   -1.04664  -1.04548  -0.95389  -0.89282  -0.88351
 Alpha  occ. eigenvalues --   -0.84263  -0.49253  -0.38677  -0.37670  -0.36769
 Alpha  occ. eigenvalues --   -0.35946  -0.31782  -0.28803  -0.26506  -0.25667
 Alpha  occ. eigenvalues --   -0.25117  -0.20957  -0.20843  -0.17033
 Alpha virt. eigenvalues --   -0.11245  -0.04231  -0.02804  -0.01523   0.00696
 Alpha virt. eigenvalues --    0.02209   0.03037   0.04934   0.05796   0.10479
 Alpha virt. eigenvalues --    0.10904   0.11139   0.11476   0.13690   0.14757

 Mulliken atomic charges:
              1
     1  O   -0.697026
     2  O   -0.685696
     3  P    0.922203
     4  Ca   0.995329
     5  O   -0.828064
     6  H    0.263862
     7  O   -0.822237
     8  Ca   0.851628
 Sum of Mulliken charges=   0.00000

 Dipole moment (field-independent basis, Debye):
    X=    -3.7100    Y=    -6.9575    Z=     0.5511  Tot=     7.9040
 Quadrupole moment (field-independent basis, Debye-Ang):
   XX=   -65.1317   YY=   -65.8906   ZZ=   -68.5787
   XY=    20.7785   XZ=     0.3986   YZ=     4.5047

 Normal termination of Gaussian 03 at Mon May  4 20:08:51 2015.
