 Gaussian 03, Revision E.01,
 Gaussian 03:  EM64T-G03RevE.01 11-Sep-2007

 -------------------------------------
 # b3lyp/6-31G(d,p) pop=(ReadRadii,MK)
 -------------------------------------

 ----------
 Ca2HPO4_51
 ----------
 Symbolic Z-matrix:
 Charge =  0 Multiplicity = 1

                         Standard orientation:
 ---------------------------------------------------------------------
 Center     Atomic     Atomic              Coordinates (Angstroms)
 Number     Number      Type              X           Y           Z
 ---------------------------------------------------------------------
    1          8             0        2.957438   -0.811052    0.909541
    2          1             0        3.778859   -0.327709    1.064070
    3          8             0        3.069558   -1.088111   -0.583098
    4          8             0        0.483734    2.098052   -0.276980
    5         15             0       -0.991643    2.005773    0.115205
    6         20             0       -2.575722   -1.528645   -0.001959
    7          8             0       -1.312200    0.479570    0.276481
    8         20             0        1.051099   -0.230683   -0.268027
 ---------------------------------------------------------------------

 SCF Done:  E(RB+HF-LYP) =  -1998.02158215     A.U. after   11 cycles

 The electronic state is 1-A.
 Alpha  occ. eigenvalues -- -145.38222-145.37120 -77.19199 -19.18347 -19.17646
 Alpha  occ. eigenvalues --  -19.16790 -19.10886 -15.45392 -15.44264 -12.58541
 Alpha  occ. eigenvalues --  -12.58539 -12.58465 -12.57491 -12.57449 -12.57295
 Alpha  occ. eigenvalues --   -6.65042  -4.81471  -4.81230  -4.80816  -1.82689
 Alpha  occ. eigenvalues --   -1.81772  -1.10508  -1.10072  -1.10053  -1.09982
 Alpha  occ. eigenvalues --   -1.09619  -1.09478  -1.03741  -1.02020  -0.97702
 Alpha  occ. eigenvalues --   -0.79619  -0.56678  -0.48218  -0.45417  -0.43203
 Alpha  occ. eigenvalues --   -0.42394  -0.38189  -0.35795  -0.34522  -0.33465
 Alpha  occ. eigenvalues --   -0.30839  -0.23538  -0.20646  -0.14731
 Alpha virt. eigenvalues --   -0.09531  -0.06386  -0.04267  -0.02781  -0.01051
 Alpha virt. eigenvalues --   -0.00750   0.02225   0.02982   0.04793   0.05620
 Alpha virt. eigenvalues --    0.05897   0.08128   0.10483   0.10923   0.11624

 Mulliken atomic charges:
              1
     1  O   -0.442350
     2  H    0.348257
     3  O   -0.512217
     4  O   -0.622021
     5  P    0.792174
     6  Ca   0.059842
     7  O   -0.697712
     8  Ca   1.074027
 Sum of Mulliken charges=   0.00000

 Dipole moment (field-independent basis, Debye):
    X=    -2.5057    Y=     2.9898    Z=     1.0277  Tot=     4.0341
 Quadrupole moment (field-independent basis, Debye-Ang):
   XX=   -80.9454   YY=   -85.7112   ZZ=   -70.6564
   XY=     3.5790   XZ=     3.7147   YZ=    -0.3912

 Normal termination of Gaussian 03 at Mon May  4 20:08:40 2015.
