 Gaussian 03, Revision E.01,
 Gaussian 03:  EM64T-G03RevE.01 11-Sep-2007

 -------------------------------------
 # b3lyp/6-31G(d,p) pop=(ReadRadii,MK)
 -------------------------------------

 ----------
 Ca2HPO4_48
 ----------
 Symbolic Z-matrix:
 Charge =  0 Multiplicity = 1

                         Standard orientation:
 ---------------------------------------------------------------------
 Center     Atomic     Atomic              Coordinates (Angstroms)
 Number     Number      Type              X           Y           Z
 ---------------------------------------------------------------------
    1          8             0        2.559040    1.246029    0.000383
    2          8             0        2.559080   -1.246001   -0.000457
    3         15             0        3.470880    0.000027   -0.000252
    4         20             0        0.531288   -0.000035    0.000336
    5          8             0       -1.556370   -0.000690    0.788542
    6          8             0       -1.556180    0.000638   -0.788371
    7         20             0       -3.648690    0.000023   -0.000167
    8          1             0       -5.759710    0.000031   -0.000385
 ---------------------------------------------------------------------

 SCF Done:  E(RB+HF-LYP) =  -1998.07639854     A.U. after    6 cycles

 The electronic state is 1-A.
 Alpha  occ. eigenvalues -- -145.35002-145.34945 -77.15849 -19.13869 -19.13866
 Alpha  occ. eigenvalues --  -19.11726 -19.11720 -15.42336 -15.42174 -12.55583
 Alpha  occ. eigenvalues --  -12.55525 -12.55389 -12.55377 -12.55272 -12.55171
 Alpha  occ. eigenvalues --   -6.61768  -4.78201  -4.77933  -4.77562  -1.80085
 Alpha  occ. eigenvalues --   -1.79874  -1.08759  -1.08192  -1.07926  -1.07809
 Alpha  occ. eigenvalues --   -1.07714  -1.07071  -1.00242  -0.94402  -0.93700
 Alpha  occ. eigenvalues --   -0.75908  -0.52716  -0.41386  -0.39868  -0.39300
 Alpha  occ. eigenvalues --   -0.35483  -0.34397  -0.32532  -0.30955  -0.29775
 Alpha  occ. eigenvalues --   -0.27416  -0.24228  -0.21412  -0.19877
 Alpha virt. eigenvalues --   -0.06391  -0.04143  -0.02476  -0.02352  -0.01105
 Alpha virt. eigenvalues --    0.00746   0.01356   0.04257   0.05519   0.05667
 Alpha virt. eigenvalues --    0.08285   0.08500   0.11703   0.13730   0.13830

 Mulliken atomic charges:
              1
     1  O   -0.647572
     2  O   -0.647503
     3  P    0.743890
     4  Ca   1.125473
     5  O   -0.616692
     6  O   -0.616704
     7  Ca   0.938153
     8  H   -0.279044
 Sum of Mulliken charges=   0.00000

 Dipole moment (field-independent basis, Debye):
    X=     1.4259    Y=    -0.0004    Z=     0.0017  Tot=     1.4259
 Quadrupole moment (field-independent basis, Debye-Ang):
   XX=  -108.1289   YY=   -68.8471   ZZ=   -62.3126
   XY=    -0.0011   XZ=    -0.0009   YZ=    -0.0002

 Normal termination of Gaussian 03 at Mon May  4 20:08:36 2015.
