 Gaussian 03, Revision E.01,
 Gaussian 03:  EM64T-G03RevE.01 11-Sep-2007

 -------------------------------------
 # b3lyp/6-31G(d,p) pop=(ReadRadii,MK)
 -------------------------------------

 ----------
 Ca2HPO4_71
 ----------
 Symbolic Z-matrix:
 Charge =  0 Multiplicity = 1

                         Standard orientation:
 ---------------------------------------------------------------------
 Center     Atomic     Atomic              Coordinates (Angstroms)
 Number     Number      Type              X           Y           Z
 ---------------------------------------------------------------------
    1          8             0        1.850810    1.126179   -0.494223
    2          1             0        2.604850    1.724839   -0.356515
    3          8             0        1.400810    0.877165    0.936140
    4         15             0       -1.944631   -1.138749   -0.004735
    5         20             0        1.746129   -1.320911    0.061765
    6          8             0       -0.497101   -0.910281   -0.577667
    7         20             0       -0.542846    1.552140   -0.162095
    8          8             0       -2.442150    0.248412    0.440017
 ---------------------------------------------------------------------

 SCF Done:  E(RB+HF-LYP) =  -1998.03094983     A.U. after   14 cycles

 The electronic state is 1-A.
 Alpha  occ. eigenvalues -- -145.38283-145.37116 -77.17154 -19.24037 -19.17070
 Alpha  occ. eigenvalues --  -19.15532 -19.14883 -15.45379 -15.44240 -12.58585
 Alpha  occ. eigenvalues --  -12.58521 -12.58479 -12.57434 -12.57381 -12.57331
 Alpha  occ. eigenvalues --   -6.62984  -4.79387  -4.79189  -4.78769  -1.82735
 Alpha  occ. eigenvalues --   -1.81553  -1.12254  -1.10589  -1.10370  -1.09334
 Alpha  occ. eigenvalues --   -1.09052  -1.09050  -1.06798  -1.01404  -0.95631
 Alpha  occ. eigenvalues --   -0.85700  -0.54968  -0.53495  -0.44030  -0.43355
 Alpha  occ. eigenvalues --   -0.42576  -0.41247  -0.40499  -0.32901  -0.31544
 Alpha  occ. eigenvalues --   -0.29613  -0.28562  -0.28129  -0.11448
 Alpha virt. eigenvalues --   -0.08486  -0.08063  -0.04652  -0.01886  -0.00986
 Alpha virt. eigenvalues --   -0.00350  -0.00057   0.01624   0.02869   0.05295
 Alpha virt. eigenvalues --    0.06423   0.07937   0.09841   0.10834   0.12142

 Mulliken atomic charges:
              1
     1  O   -0.420621
     2  H    0.362522
     3  O   -0.512202
     4  P    0.734394
     5  Ca   0.383727
     6  O   -0.721645
     7  Ca   0.807567
     8  O   -0.633742
 Sum of Mulliken charges=   0.00000

 Dipole moment (field-independent basis, Debye):
    X=     0.2433    Y=     2.3228    Z=    -0.6685  Tot=     2.4293
 Quadrupole moment (field-independent basis, Debye-Ang):
   XX=   -81.6233   YY=   -77.8528   ZZ=   -76.7624
   XY=     6.1300   XZ=    -0.7924   YZ=    -1.0151

 Normal termination of Gaussian 03 at Mon May  4 20:08:52 2015.
