 Gaussian 03, Revision E.01,
 Gaussian 03:  EM64T-G03RevE.01 11-Sep-2007

 -------------------------------------
 # b3lyp/6-31G(d,p) pop=(ReadRadii,MK)
 -------------------------------------

 ----------
 Ca2HPO4_13
 ----------
 Symbolic Z-matrix:
 Charge =  0 Multiplicity = 1

                         Standard orientation:
 ---------------------------------------------------------------------
 Center     Atomic     Atomic              Coordinates (Angstroms)
 Number     Number      Type              X           Y           Z
 ---------------------------------------------------------------------
    1          8             0       -4.179249   -0.995383    0.383321
    2          1             0       -4.852390   -0.426154   -0.017722
    3          8             0       -2.976770   -0.340924   -0.049740
    4          8             0        1.478370    0.303916    0.399120
    5         15             0        1.455778    1.859712    0.196912
    6          8             0        0.052586    2.209311   -0.300168
    7         20             0        2.343082   -1.877357   -0.051373
    8         20             0       -0.942270    0.033114   -0.268438
 ---------------------------------------------------------------------

 SCF Done:  E(RB+HF-LYP) =  -1998.00301498     A.U. after    9 cycles

 The electronic state is 1-A.
 Alpha  occ. eigenvalues -- -145.38828-145.37775 -77.19418 -19.17849 -19.16960
 Alpha  occ. eigenvalues --  -19.14531 -19.09788 -15.45982 -15.44882 -12.59134
 Alpha  occ. eigenvalues --  -12.59131 -12.59058 -12.58122 -12.58061 -12.57923
 Alpha  occ. eigenvalues --   -6.65255  -4.81689  -4.81442  -4.81025  -1.83249
 Alpha  occ. eigenvalues --   -1.82312  -1.10825  -1.10620  -1.10551  -1.10229
 Alpha  occ. eigenvalues --   -1.10139  -1.09973  -1.03693  -1.02006  -0.97910
 Alpha  occ. eigenvalues --   -0.76904  -0.56867  -0.45603  -0.44811  -0.43347
 Alpha  occ. eigenvalues --   -0.42612  -0.36969  -0.34791  -0.33613  -0.32777
 Alpha  occ. eigenvalues --   -0.31034  -0.21807  -0.17822  -0.15181
 Alpha virt. eigenvalues --   -0.09719  -0.07014  -0.04487  -0.03054  -0.01193
 Alpha virt. eigenvalues --    0.00422   0.01968   0.03127   0.04477   0.05411
 Alpha virt. eigenvalues --    0.07437   0.08754   0.10195   0.10592   0.12601

 Mulliken atomic charges:
              1
     1  O   -0.340218
     2  H    0.315444
     3  O   -0.575167
     4  O   -0.700333
     5  P    0.794335
     6  O   -0.617850
     7  Ca   0.100342
     8  Ca   1.023447
 Sum of Mulliken charges=   0.00000

 Dipole moment (field-independent basis, Debye):
    X=     3.6962    Y=     1.9961    Z=    -0.4865  Tot=     4.2289
 Quadrupole moment (field-independent basis, Debye-Ang):
   XX=   -78.1460   YY=   -83.9655   ZZ=   -70.9690
   XY=    -4.4919   XZ=     5.4659   YZ=    -0.3525

 Normal termination of Gaussian 03 at Mon May  4 20:08:23 2015.
