 Gaussian 03, Revision E.01,
 Gaussian 03:  EM64T-G03RevE.01 11-Sep-2007

 -------------------------------------
 # b3lyp/6-31G(d,p) pop=(ReadRadii,MK)
 -------------------------------------

 ----------
 Ca2HPO4_73
 ----------
 Symbolic Z-matrix:
 Charge =  0 Multiplicity = 1

                         Standard orientation:
 ---------------------------------------------------------------------
 Center     Atomic     Atomic              Coordinates (Angstroms)
 Number     Number      Type              X           Y           Z
 ---------------------------------------------------------------------
    1          8             0       -1.306699    0.712297    1.265740
    2          8             0        0.785074    0.706225   -0.116484
    3         15             0       -0.648480    1.439940    0.038863
    4         20             0        2.878311   -0.103386   -0.135163
    5         20             0       -0.436809   -1.342620    0.351264
    6          8             0       -1.445729    0.093385   -1.229800
    7          8             0       -2.580769   -0.598479   -0.558658
    8          1             0       -2.717849    0.013584    0.208685
 ---------------------------------------------------------------------

 SCF Done:  E(RB+HF-LYP) =  -1998.01604376     A.U. after    8 cycles

 The electronic state is 1-A.
 Alpha  occ. eigenvalues -- -145.39028-145.38773 -77.14469 -19.20543 -19.17544
 Alpha  occ. eigenvalues --  -19.11836 -19.10158 -15.46089 -15.45914 -12.59274
 Alpha  occ. eigenvalues --  -12.59254 -12.59198 -12.59087 -12.59083 -12.58968
 Alpha  occ. eigenvalues --   -6.59945  -4.76386  -4.76187  -4.75693  -1.83452
 Alpha  occ. eigenvalues --   -1.83200  -1.12288  -1.11244  -1.10935  -1.10683
 Alpha  occ. eigenvalues --   -1.10592  -1.10389  -1.06736  -0.96880  -0.91442
 Alpha  occ. eigenvalues --   -0.84878  -0.54239  -0.49817  -0.42569  -0.41172
 Alpha  occ. eigenvalues --   -0.39636  -0.36950  -0.35170  -0.30737  -0.28798
 Alpha  occ. eigenvalues --   -0.27615  -0.25358  -0.23323  -0.15148
 Alpha virt. eigenvalues --   -0.09089  -0.04020  -0.03782  -0.01793  -0.00771
 Alpha virt. eigenvalues --   -0.00026   0.01558   0.03203   0.04550   0.04761
 Alpha virt. eigenvalues --    0.07613   0.08671   0.10538   0.11302   0.12725

 Mulliken atomic charges:
              1
     1  O   -0.736571
     2  O   -0.797589
     3  P    0.927081
     4  Ca   0.358174
     5  Ca   0.733251
     6  O   -0.452146
     7  O   -0.375638
     8  H    0.343439
 Sum of Mulliken charges=   0.00000

 Dipole moment (field-independent basis, Debye):
    X=     2.2769    Y=    -2.6989    Z=     1.0792  Tot=     3.6923
 Quadrupole moment (field-independent basis, Debye-Ang):
   XX=   -72.9700   YY=   -70.6495   ZZ=   -78.1917
   XY=    11.9086   XZ=    -5.1400   YZ=    -3.5930

 Normal termination of Gaussian 03 at Mon May  4 20:08:48 2015.
