 Gaussian 03, Revision E.01,
 Gaussian 03:  EM64T-G03RevE.01 11-Sep-2007

 -------------------------------------
 # b3lyp/6-31G(d,p) pop=(ReadRadii,MK)
 -------------------------------------

 ----------
 Ca2HPO4_57
 ----------
 Symbolic Z-matrix:
 Charge =  0 Multiplicity = 1

                         Standard orientation:
 ---------------------------------------------------------------------
 Center     Atomic     Atomic              Coordinates (Angstroms)
 Number     Number      Type              X           Y           Z
 ---------------------------------------------------------------------
    1          8             0        0.124159    1.476511   -0.088879
    2          8             0        2.494500    0.540837    0.074559
    3         15             0        1.624519    1.806383    0.009880
    4         20             0        2.090003   -1.748456    0.049088
    5         20             0       -1.363549   -0.275984   -0.168293
    6          8             0       -3.525349   -0.287533   -0.669616
    7          8             0       -3.451019   -0.133662    0.841791
    8          1             0       -4.035200    0.623820    0.973063
 ---------------------------------------------------------------------

 SCF Done:  E(RB+HF-LYP) =  -1998.02037359     A.U. after    9 cycles

 The electronic state is 1-A.
 Alpha  occ. eigenvalues -- -145.38674-145.36109 -77.17007 -19.17801 -19.14926
 Alpha  occ. eigenvalues --  -19.14762 -19.10281 -15.45841 -15.43295 -12.59010
 Alpha  occ. eigenvalues --  -12.59002 -12.58890 -12.56515 -12.56469 -12.56329
 Alpha  occ. eigenvalues --   -6.62714  -4.79157  -4.78918  -4.78488  -1.83171
 Alpha  occ. eigenvalues --   -1.80842  -1.10660  -1.10616  -1.10413  -1.09311
 Alpha  occ. eigenvalues --   -1.08612  -1.08569  -1.01899  -1.00981  -0.95714
 Alpha  occ. eigenvalues --   -0.79034  -0.54624  -0.47639  -0.44079  -0.40161
 Alpha  occ. eigenvalues --   -0.39967  -0.37637  -0.35243  -0.32665  -0.31110
 Alpha  occ. eigenvalues --   -0.28228  -0.22944  -0.20090  -0.15653
 Alpha virt. eigenvalues --   -0.07059  -0.06979  -0.04526  -0.01885  -0.00674
 Alpha virt. eigenvalues --   -0.00269   0.01879   0.03224   0.04235   0.06483
 Alpha virt. eigenvalues --    0.07764   0.09562   0.10236   0.10311   0.12181

 Mulliken atomic charges:
              1
     1  O   -0.666137
     2  O   -0.652748
     3  P    0.732146
     4  Ca   0.235750
     5  Ca   0.962996
     6  O   -0.516608
     7  O   -0.441775
     8  H    0.346375
 Sum of Mulliken charges=   0.00000

 Dipole moment (field-independent basis, Debye):
    X=     3.7884    Y=     0.4117    Z=     0.9575  Tot=     3.9292
 Quadrupole moment (field-independent basis, Debye-Ang):
   XX=   -82.5199   YY=   -77.4398   ZZ=   -68.9893
   XY=   -11.4198   XZ=    -5.3631   YZ=     0.9939

 Normal termination of Gaussian 03 at Mon May  4 20:08:41 2015.
