 Gaussian 03, Revision E.01,
 Gaussian 03:  EM64T-G03RevE.01 11-Sep-2007

 -------------------------------------
 # b3lyp/6-31G(d,p) pop=(ReadRadii,MK)
 -------------------------------------

 ----------
 Ca2HPO4_72
 ----------
 Symbolic Z-matrix:
 Charge =  0 Multiplicity = 1

                         Standard orientation:
 ---------------------------------------------------------------------
 Center     Atomic     Atomic              Coordinates (Angstroms)
 Number     Number      Type              X           Y           Z
 ---------------------------------------------------------------------
    1          8             0        1.848996    1.128304   -0.496899
    2          1             0        2.601458    1.729822   -0.362150
    3          8             0        1.404045    0.878568    0.934994
    4         15             0       -1.952461   -1.138453   -0.004181
    5         20             0        1.755698   -1.317935    0.059073
    6          8             0       -0.497747   -0.919523   -0.559995
    7         20             0       -0.543304    1.549392   -0.159937
    8          8             0       -2.450597    0.252380    0.427167
 ---------------------------------------------------------------------

 SCF Done:  E(RB+HF-LYP) =  -1998.03095171     A.U. after   14 cycles

 The electronic state is 1-A.
 Alpha  occ. eigenvalues -- -145.38278-145.37114 -77.17254 -19.24025 -19.17055
 Alpha  occ. eigenvalues --  -19.15613 -19.14960 -15.45375 -15.44237 -12.58581
 Alpha  occ. eigenvalues --  -12.58518 -12.58474 -12.57430 -12.57378 -12.57328
 Alpha  occ. eigenvalues --   -6.63082  -4.79489  -4.79286  -4.78866  -1.82733
 Alpha  occ. eigenvalues --   -1.81548  -1.12249  -1.10589  -1.10370  -1.09329
 Alpha  occ. eigenvalues --   -1.09046  -1.09044  -1.06783  -1.01490  -0.95716
 Alpha  occ. eigenvalues --   -0.85686  -0.55031  -0.53501  -0.44044  -0.43405
 Alpha  occ. eigenvalues --   -0.42580  -0.41314  -0.40569  -0.32959  -0.31614
 Alpha  occ. eigenvalues --   -0.29646  -0.28587  -0.28120  -0.11437
 Alpha virt. eigenvalues --   -0.08478  -0.08095  -0.04661  -0.01894  -0.00984
 Alpha virt. eigenvalues --   -0.00345  -0.00074   0.01614   0.02855   0.05298
 Alpha virt. eigenvalues --    0.06391   0.07933   0.09848   0.10805   0.12142

 Mulliken atomic charges:
              1
     1  O   -0.420489
     2  H    0.362516
     3  O   -0.511978
     4  P    0.736825
     5  Ca   0.383643
     6  O   -0.720039
     7  Ca   0.802805
     8  O   -0.633281
 Sum of Mulliken charges=   0.00000

 Dipole moment (field-independent basis, Debye):
    X=     0.1467    Y=     2.3249    Z=    -0.6347  Tot=     2.4144
 Quadrupole moment (field-independent basis, Debye-Ang):
   XX=   -81.8746   YY=   -77.9330   ZZ=   -76.6977
   XY=     6.2749   XZ=    -0.7999   YZ=    -1.0689

 Normal termination of Gaussian 03 at Mon May  4 20:08:54 2015.
