 Gaussian 03, Revision E.01,
 Gaussian 03:  EM64T-G03RevE.01 11-Sep-2007

 -------------------------------------
 # b3lyp/6-31G(d,p) pop=(ReadRadii,MK)
 -------------------------------------

 ----------
 Ca2HPO4_61
 ----------
 Symbolic Z-matrix:
 Charge =  0 Multiplicity = 1

                         Standard orientation:
 ---------------------------------------------------------------------
 Center     Atomic     Atomic              Coordinates (Angstroms)
 Number     Number      Type              X           Y           Z
 ---------------------------------------------------------------------
    1          8             0       -2.946120   -0.187419    0.017182
    2          1             0       -3.359710    0.357960   -0.677305
    3          8             0       -1.926790    0.797481    0.546247
    4          8             0       -1.073840    1.107099   -0.553665
    5          8             0        1.044261   -0.426104    0.993437
    6         15             0        2.094501   -1.116799   -0.216576
    7         20             0       -0.705234   -1.259101   -0.139121
    8         20             0        1.263339    1.562380   -0.065863
 ---------------------------------------------------------------------

 SCF Done:  E(RB+HF-LYP) =  -1997.86167928     A.U. after   12 cycles

 The electronic state is 1-A.
 Alpha  occ. eigenvalues -- -145.36797-145.36374 -77.03378 -19.28618 -19.24981
 Alpha  occ. eigenvalues --  -19.17417 -19.06853 -15.43901 -15.43496 -12.57110
 Alpha  occ. eigenvalues --  -12.57038 -12.56990 -12.56710 -12.56623 -12.56596
 Alpha  occ. eigenvalues --   -6.49914  -4.66313  -4.65986  -4.65679  -1.81272
 Alpha  occ. eigenvalues --   -1.81003  -1.16992  -1.09253  -1.08848  -1.08658
 Alpha  occ. eigenvalues --   -1.08551  -1.08263  -1.07792  -1.00839  -0.86809
 Alpha  occ. eigenvalues --   -0.81109  -0.55868  -0.49406  -0.47819  -0.47613
 Alpha  occ. eigenvalues --   -0.41395  -0.35958  -0.30805  -0.29712  -0.29064
 Alpha  occ. eigenvalues --   -0.28159  -0.25469  -0.13485  -0.12642
 Alpha virt. eigenvalues --   -0.07896  -0.06872  -0.05218  -0.01496  -0.00616
 Alpha virt. eigenvalues --    0.00114   0.00747   0.02224   0.03802   0.06021
 Alpha virt. eigenvalues --    0.06395   0.08387   0.08850   0.10548   0.13122

 Mulliken atomic charges:
              1
     1  O   -0.366637
     2  H    0.360051
     3  O   -0.104450
     4  O   -0.482862
     5  O   -0.833826
     6  P   -0.165115
     7  Ca   0.846154
     8  Ca   0.746685
 Sum of Mulliken charges=   0.00000

 Dipole moment (field-independent basis, Debye):
    X=    -5.8936    Y=     2.1251    Z=    -0.0052  Tot=     6.2650
 Quadrupole moment (field-independent basis, Debye-Ang):
   XX=   -76.1862   YY=   -63.4436   ZZ=   -74.0340
   XY=    15.5135   XZ=     4.7151   YZ=     1.2692

 Normal termination of Gaussian 03 at Mon May  4 20:08:43 2015.
