 Gaussian 03, Revision E.01,
 Gaussian 03:  EM64T-G03RevE.01 11-Sep-2007

 -------------------------------------
 # b3lyp/6-31G(d,p) pop=(ReadRadii,MK)
 -------------------------------------

 ----------
 Ca2HPO4_34
 ----------
 Symbolic Z-matrix:
 Charge =  0 Multiplicity = 1

                         Standard orientation:
 ---------------------------------------------------------------------
 Center     Atomic     Atomic              Coordinates (Angstroms)
 Number     Number      Type              X           Y           Z
 ---------------------------------------------------------------------
    1          8             0       -1.449030   -0.082485    0.756711
    2          8             0       -1.449030   -0.082485   -0.756711
    3         15             0       -0.388918    1.211089    0.000000
    4          1             0       -1.308760    2.262179    0.000000
    5          8             0        0.541553    1.238259   -1.251160
    6         20             0        0.541553   -0.973022   -1.850690
    7         20             0        0.541553   -0.973022    1.850690
    8          8             0        0.541553    1.238259    1.251160
 ---------------------------------------------------------------------

 SCF Done:  E(RB+HF-LYP) =  -1997.97834305     A.U. after    8 cycles

 The electronic state is 1-A'.
 Alpha  occ. eigenvalues -- -145.39226-145.39225 -77.20312 -19.17159 -19.17153
 Alpha  occ. eigenvalues --  -19.09170 -19.09169 -15.46312 -15.46311 -12.59521
 Alpha  occ. eigenvalues --  -12.59517 -12.59472 -12.59471 -12.59380 -12.59378
 Alpha  occ. eigenvalues --   -6.64737  -4.81337  -4.80937  -4.80901  -1.83580
 Alpha  occ. eigenvalues --   -1.83564  -1.11758  -1.11168  -1.11142  -1.10989
 Alpha  occ. eigenvalues --   -1.10891  -1.10778  -1.06908  -0.95841  -0.90984
 Alpha  occ. eigenvalues --   -0.81009  -0.57218  -0.46130  -0.43137  -0.42288
 Alpha  occ. eigenvalues --   -0.38932  -0.36283  -0.31024  -0.30051  -0.28937
 Alpha  occ. eigenvalues --   -0.27601  -0.24696  -0.22752  -0.14976
 Alpha virt. eigenvalues --   -0.09642  -0.04144  -0.02388  -0.02080  -0.00350
 Alpha virt. eigenvalues --   -0.00018   0.00877   0.04468   0.05368   0.06749
 Alpha virt. eigenvalues --    0.08353   0.08925   0.11381   0.11783   0.13556

 Mulliken atomic charges:
              1
     1  O   -0.474583
     2  O   -0.474583
     3  P    1.209303
     4  H   -0.068788
     5  O   -0.682680
     6  Ca   0.587005
     7  Ca   0.587005
     8  O   -0.682680
 Sum of Mulliken charges=   0.00000

 Dipole moment (field-independent basis, Debye):
    X=     0.7423    Y=    -3.2785    Z=     0.0000  Tot=     3.3615
 Quadrupole moment (field-independent basis, Debye-Ang):
   XX=   -79.7538   YY=   -80.2483   ZZ=   -52.1810
   XY=    -2.6994   XZ=     0.0000   YZ=     0.0000

 Normal termination of Gaussian 03 at Mon May  4 20:41:35 2015.
