 Gaussian 03, Revision E.01,
 Gaussian 03:  EM64T-G03RevE.01 11-Sep-2007

 -------------------------------------
 # b3lyp/6-31G(d,p) pop=(ReadRadii,MK)
 -------------------------------------

 ----------
 Ca2HPO4_76
 ----------
 Symbolic Z-matrix:
 Charge =  0 Multiplicity = 1

                         Standard orientation:
 ---------------------------------------------------------------------
 Center     Atomic     Atomic              Coordinates (Angstroms)
 Number     Number      Type              X           Y           Z
 ---------------------------------------------------------------------
    1          8             0       -0.156494   -0.374955    1.494520
    2          8             0        1.330469   -0.704153    1.126830
    3         15             0        1.613329   -0.902132   -0.490786
    4          8             0        1.628908    0.868289   -0.963086
    5          1             0        2.555708    1.141292   -0.953552
    6         20             0       -1.420551   -1.237649   -0.271582
    7          8             0       -1.971302    0.786799   -0.664109
    8         20             0       -0.249863    1.626791    0.289688
 ---------------------------------------------------------------------

 SCF Done:  E(RB+HF-LYP) =  -1997.97432371     A.U. after    9 cycles

 The electronic state is 1-A.
 Alpha  occ. eigenvalues -- -145.33526-145.33284 -77.07973 -19.16319 -19.15554
 Alpha  occ. eigenvalues --  -19.10018 -18.98219 -15.40625 -15.40383 -12.53824
 Alpha  occ. eigenvalues --  -12.53780 -12.53696 -12.53593 -12.53529 -12.53460
 Alpha  occ. eigenvalues --   -6.54300  -4.70861  -4.70495  -4.69809  -1.78180
 Alpha  occ. eigenvalues --   -1.77941  -1.06682  -1.05867  -1.05798  -1.05536
 Alpha  occ. eigenvalues --   -1.05279  -1.04713  -0.99745  -0.97555  -0.79790
 Alpha  occ. eigenvalues --   -0.72225  -0.54848  -0.46398  -0.39931  -0.37446
 Alpha  occ. eigenvalues --   -0.36392  -0.31121  -0.29221  -0.22950  -0.21702
 Alpha  occ. eigenvalues --   -0.18128  -0.16929  -0.16101  -0.15441
 Alpha virt. eigenvalues --   -0.06781  -0.06016  -0.00430  -0.00011   0.00968
 Alpha virt. eigenvalues --    0.01859   0.02553   0.04285   0.04732   0.06480
 Alpha virt. eigenvalues --    0.07277   0.08763   0.11894   0.14206   0.14996

 Mulliken atomic charges:
              1
     1  O   -0.557226
     2  O   -0.388093
     3  P    0.241987
     4  O   -0.708269
     5  H    0.333100
     6  Ca   0.966207
     7  O   -0.884445
     8  Ca   0.996740
 Sum of Mulliken charges=   0.00000

 Dipole moment (field-independent basis, Debye):
    X=    -0.4623    Y=     1.1053    Z=     0.2622  Tot=     1.2265
 Quadrupole moment (field-independent basis, Debye-Ang):
   XX=   -73.1864   YY=   -41.5742   ZZ=   -75.5408
   XY=    21.2115   XZ=    -5.6317   YZ=    10.0343

 Normal termination of Gaussian 03 at Mon May  4 20:08:55 2015.
