 Gaussian 03, Revision E.01,
 Gaussian 03:  EM64T-G03RevE.01 11-Sep-2007

 --------------------------------------------
 # b3lyp/6-31G(d,p) pop=(ReadRadii,MK) scf=qc
 --------------------------------------------

 ----------
 Ca2HPO4_25
 ----------
 Symbolic Z-matrix:
 Charge =  0 Multiplicity = 1

                         Standard orientation:
 ---------------------------------------------------------------------
 Center     Atomic     Atomic              Coordinates (Angstroms)
 Number     Number      Type              X           Y           Z
 ---------------------------------------------------------------------
    1          8             0       -2.254759    2.664383    0.000000
    2          8             0        0.000000    1.302091    0.000000
    3          8             0        3.743089    0.033725    0.000000
    4          8             0        3.582538   -1.351432    0.000000
    5         20             0        1.530719   -0.402007    0.000000
    6         15             0       -1.534180    1.363023    0.000000
    7          1             0       -0.226365   -1.789018    0.000000
    8         20             0       -2.397112   -1.590317    0.000000
 ---------------------------------------------------------------------

 SCF Done:  E(RB+HF-LYP) =  -1997.90423727     a.u. after   78 cycles

 The electronic state is 1-A'.
 Alpha  occ. eigenvalues -- -145.44792-145.36296 -77.16800 -19.15603 -19.14146
 Alpha  occ. eigenvalues --  -19.12232 -19.11679 -15.51887 -15.43465 -12.65097
 Alpha  occ. eigenvalues --  -12.65031 -12.64965 -12.56734 -12.56611 -12.56488
 Alpha  occ. eigenvalues --   -6.62808  -4.79271  -4.78956  -4.78670  -1.89033
 Alpha  occ. eigenvalues --   -1.80990  -1.16652  -1.16335  -1.15946  -1.09460
 Alpha  occ. eigenvalues --   -1.09107  -1.08495  -1.01336  -0.99517  -0.96140
 Alpha  occ. eigenvalues --   -0.70321  -0.53868  -0.42389  -0.40790  -0.40036
 Alpha  occ. eigenvalues --   -0.36192  -0.33955  -0.32653  -0.32060  -0.31765
 Alpha  occ. eigenvalues --   -0.30370  -0.27464  -0.15424  -0.15029
 Alpha virt. eigenvalues --   -0.13679  -0.08910  -0.04807  -0.04220  -0.02991
 Alpha virt. eigenvalues --   -0.01660   0.00053   0.01518   0.02710   0.05245
 Alpha virt. eigenvalues --    0.06743   0.08137   0.08960   0.10490   0.11550

 Mulliken atomic charges:
              1
     1  O   -0.476475
     2  O   -0.639852
     3  O   -0.381537
     4  O   -0.397458
     5  Ca   1.136082
     6  P    0.564630
     7  H   -0.408215
     8  Ca   0.602826
 Sum of Mulliken charges=   0.00000

 Dipole moment (field-independent basis, Debye):
    X=    -8.2776    Y=    -4.9392    Z=     0.0000  Tot=     9.6392
 Quadrupole moment (field-independent basis, Debye-Ang):
   XX=  -100.4207   YY=   -84.3365   ZZ=   -62.5041
   XY=    19.0333   XZ=     0.0000   YZ=     0.0000

 Normal termination of Gaussian 03 at Mon May  4 21:05:35 2015.
