 Gaussian 03, Revision E.01,
 Gaussian 03:  EM64T-G03RevE.01 11-Sep-2007

 -------------------------------------
 # b3lyp/6-31G(d,p) pop=(ReadRadii,MK)
 -------------------------------------

 ----------
 Ca2HPO4_10
 ----------
 Symbolic Z-matrix:
 Charge =  0 Multiplicity = 1

                         Standard orientation:
 ---------------------------------------------------------------------
 Center     Atomic     Atomic              Coordinates (Angstroms)
 Number     Number      Type              X           Y           Z
 ---------------------------------------------------------------------
    1          8             0       -0.599274   -1.368780    1.014820
    2         15             0       -1.537559   -1.200980   -0.285964
    3         20             0       -3.485108    0.961731   -0.123826
    4         20             0        1.109792   -0.266493    0.039466
    5          8             0        3.393172   -0.530885   -0.467272
    6          8             0        3.118622    0.745443   -0.712315
    7          8             0        2.492022    1.482380    0.757317
    8          1             0        3.333372    1.484680    1.236250
 ---------------------------------------------------------------------

 SCF Done:  E(RB+HF-LYP) =  -1997.84473237     A.U. after   13 cycles

 The electronic state is 1-A.
 Alpha  occ. eigenvalues -- -145.40609-145.35499 -77.07478 -19.26622 -19.18195
 Alpha  occ. eigenvalues --  -19.17725 -19.10594 -15.47766 -15.42679 -12.60916
 Alpha  occ. eigenvalues --  -12.60892 -12.60863 -12.55886 -12.55873 -12.55715
 Alpha  occ. eigenvalues --   -6.54092  -4.70509  -4.70284  -4.69739  -1.85005
 Alpha  occ. eigenvalues --   -1.80272  -1.15613  -1.12434  -1.12291  -1.12083
 Alpha  occ. eigenvalues --   -1.08168  -1.08008  -1.06890  -0.97366  -0.91954
 Alpha  occ. eigenvalues --   -0.77086  -0.50569  -0.49824  -0.45564  -0.44777
 Alpha  occ. eigenvalues --   -0.42029  -0.33440  -0.32559  -0.31818  -0.31633
 Alpha  occ. eigenvalues --   -0.28098  -0.22960  -0.16642  -0.15264
 Alpha virt. eigenvalues --   -0.09700  -0.09506  -0.04881  -0.03724  -0.02631
 Alpha virt. eigenvalues --   -0.00582   0.01063   0.01539   0.03372   0.05394
 Alpha virt. eigenvalues --    0.07517   0.09769   0.10788   0.11098   0.13234

 Mulliken atomic charges:
              1
     1  O   -0.671185
     2  P   -0.107207
     3  Ca   0.323382
     4  Ca   1.072622
     5  O   -0.329535
     6  O   -0.103044
     7  O   -0.522408
     8  H    0.337376
 Sum of Mulliken charges=   0.00000

 Dipole moment (field-independent basis, Debye):
    X=    -2.8830    Y=     2.5485    Z=     0.4501  Tot=     3.8742
 Quadrupole moment (field-independent basis, Debye-Ang):
   XX=   -66.3849   YY=   -79.0644   ZZ=   -71.4582
   XY=    -6.6674   XZ=     7.1177   YZ=     3.5051

 Normal termination of Gaussian 03 at Mon May  4 20:08:25 2015.
