 Gaussian 03, Revision E.01,
 Gaussian 03:  EM64T-G03RevE.01 11-Sep-2007

 -------------------------------------
 # b3lyp/6-31G(d,p) pop=(ReadRadii,MK)
 -------------------------------------

 ----------
 Ca2HPO4_42
 ----------
 Symbolic Z-matrix:
 Charge =  0 Multiplicity = 1

                         Standard orientation:
 ---------------------------------------------------------------------
 Center     Atomic     Atomic              Coordinates (Angstroms)
 Number     Number      Type              X           Y           Z
 ---------------------------------------------------------------------
    1          8             0       -2.578709    0.308449   -0.000497
    2          8             0       -0.539532   -1.116411    0.000849
    3         15             0       -2.085838   -1.153951   -0.000017
    4         20             0       -0.506752    1.431209   -0.000086
    5         20             0        1.940412   -0.996174   -0.000230
    6          1             0        3.125092   -2.761829   -0.001537
    7          8             0        1.527011    1.114330    0.785609
    8          8             0        1.527391    1.114930   -0.784946
 ---------------------------------------------------------------------

 SCF Done:  E(RB+HF-LYP) =  -1998.07287725     A.U. after    7 cycles

 The electronic state is 1-A.
 Alpha  occ. eigenvalues -- -145.37905-145.31697 -77.18936 -19.17071 -19.16733
 Alpha  occ. eigenvalues --  -19.10044 -19.10038 -15.45038 -15.38963 -12.58255
 Alpha  occ. eigenvalues --  -12.58237 -12.58062 -12.52177 -12.52165 -12.51944
 Alpha  occ. eigenvalues --   -6.64760  -4.81189  -4.80940  -4.80549  -1.82637
 Alpha  occ. eigenvalues --   -1.76661  -1.10825  -1.10543  -1.10375  -1.04814
 Alpha  occ. eigenvalues --   -1.04622  -1.04171  -1.02883  -0.97405  -0.92331
 Alpha  occ. eigenvalues --   -0.74040  -0.56235  -0.45178  -0.42751  -0.42126
 Alpha  occ. eigenvalues --   -0.34160  -0.33772  -0.33129  -0.32157  -0.31520
 Alpha  occ. eigenvalues --   -0.29368  -0.21068  -0.19000  -0.18482
 Alpha virt. eigenvalues --   -0.09120  -0.07714  -0.02615  -0.00927   0.00983
 Alpha virt. eigenvalues --    0.01206   0.02356   0.03105   0.06440   0.06801
 Alpha virt. eigenvalues --    0.07267   0.07286   0.09172   0.12366   0.13834

 Mulliken atomic charges:
              1
     1  O   -0.655381
     2  O   -0.679108
     3  P    0.774491
     4  Ca   1.101054
     5  Ca   0.939347
     6  H   -0.296551
     7  O   -0.591908
     8  O   -0.591943
 Sum of Mulliken charges=   0.00000

 Dipole moment (field-independent basis, Debye):
    X=    -7.3873    Y=     5.8837    Z=     0.0009  Tot=     9.4441
 Quadrupole moment (field-independent basis, Debye-Ang):
   XX=   -91.6214   YY=   -73.1707   ZZ=   -62.6606
   XY=     4.7502   XZ=     0.0077   YZ=    -0.0107

 Normal termination of Gaussian 03 at Mon May  4 20:08:36 2015.
