 Gaussian 03, Revision E.01,
 Gaussian 03:  EM64T-G03RevE.01 11-Sep-2007

 -------------------------------------
 # b3lyp/6-31G(d,p) pop=(ReadRadii,MK)
 -------------------------------------

 ----------
 Ca2HPO4_33
 ----------
 Symbolic Z-matrix:
 Charge =  0 Multiplicity = 1

                         Standard orientation:
 ---------------------------------------------------------------------
 Center     Atomic     Atomic              Coordinates (Angstroms)
 Number     Number      Type              X           Y           Z
 ---------------------------------------------------------------------
    1          8             0        0.453242   -1.460580    1.280760
    2          8             0        0.453242   -1.460580   -1.280760
    3         15             0        0.900055   -2.186230    0.000000
    4          1             0       -2.111190    0.217170    0.000000
    5         20             0       -0.647334    0.534646   -1.675570
    6          8             0        0.453242    2.159980   -0.733262
    7          8             0        0.453242    2.159980    0.733262
    8         20             0       -0.647334    0.534646    1.675570
 ---------------------------------------------------------------------

 SCF Done:  E(RB+HF-LYP) =  -1998.00896356     A.U. after    9 cycles

 The electronic state is 1-A'.
 Alpha  occ. eigenvalues -- -145.35751-145.35750 -77.15901 -19.13867 -19.13866
 Alpha  occ. eigenvalues --  -19.05843 -19.05836 -15.42873 -15.42871 -12.56091
 Alpha  occ. eigenvalues --  -12.56090 -12.56008 -12.56007 -12.55949 -12.55948
 Alpha  occ. eigenvalues --   -6.61602  -4.78039  -4.77806  -4.77387  -1.80387
 Alpha  occ. eigenvalues --   -1.80335  -1.08595  -1.08110  -1.07970  -1.07752
 Alpha  occ. eigenvalues --   -1.07702  -1.07475  -0.99965  -0.94655  -0.91295
 Alpha  occ. eigenvalues --   -0.67606  -0.53484  -0.42944  -0.39162  -0.38756
 Alpha  occ. eigenvalues --   -0.32205  -0.31502  -0.30167  -0.28261  -0.26820
 Alpha  occ. eigenvalues --   -0.26566  -0.24615  -0.13135  -0.12398
 Alpha virt. eigenvalues --   -0.07119  -0.06176  -0.05748   0.00805   0.00848
 Alpha virt. eigenvalues --    0.01228   0.01733   0.03641   0.05797   0.06825
 Alpha virt. eigenvalues --    0.08567   0.11609   0.11655   0.13816   0.14080

 Mulliken atomic charges:
              1
     1  O   -0.666639
     2  O   -0.666639
     3  P    0.739334
     4  H   -0.414127
     5  Ca   1.026966
     6  O   -0.522930
     7  O   -0.522930
     8  Ca   1.026966
 Sum of Mulliken charges=   0.00000

 Dipole moment (field-independent basis, Debye):
    X=    -4.0279    Y=    -2.5175    Z=     0.0000  Tot=     4.7499
 Quadrupole moment (field-independent basis, Debye-Ang):
   XX=   -71.1991   YY=   -88.4893   ZZ=   -38.1308
   XY=    -6.1504   XZ=     0.0000   YZ=     0.0000

 Normal termination of Gaussian 03 at Mon May  4 20:41:37 2015.
