 Gaussian 03, Revision E.01,
 Gaussian 03:  EM64T-G03RevE.01 11-Sep-2007

 -------------------------------------
 # b3lyp/6-31G(d,p) pop=(ReadRadii,MK)
 -------------------------------------

 ----------
 Ca2HPO4_30
 ----------
 Symbolic Z-matrix:
 Charge =  0 Multiplicity = 1

                         Standard orientation:
 ---------------------------------------------------------------------
 Center     Atomic     Atomic              Coordinates (Angstroms)
 Number     Number      Type              X           Y           Z
 ---------------------------------------------------------------------
    1          8             0       -1.779140    1.142521    0.309126
    2          8             0       -2.595311   -1.111939   -0.798541
    3          8             0       -0.197361   -0.777259    0.163142
    4         15             0       -1.777421   -0.424587    0.246582
    5          1             0       -2.128361   -0.863490    1.548810
    6         20             0        0.373900    1.590450   -0.116800
    7          8             0        2.393800    0.800640   -0.162610
    8         20             0        1.936789   -1.250421    0.049976
 ---------------------------------------------------------------------

 SCF Done:  E(RB+HF-LYP) =  -1998.14514999     A.U. after   10 cycles

 The electronic state is 1-A.
 Alpha  occ. eigenvalues -- -145.37723-145.33660 -77.13154 -19.08589 -19.06033
 Alpha  occ. eigenvalues --  -19.03077 -19.01219 -15.44795 -15.40877 -12.58017
 Alpha  occ. eigenvalues --  -12.57941 -12.57858 -12.54122 -12.54071 -12.53846
 Alpha  occ. eigenvalues --   -6.58027  -4.74464  -4.74313  -4.74197  -1.82265
 Alpha  occ. eigenvalues --   -1.78603  -1.10132  -1.09996  -1.09248  -1.06713
 Alpha  occ. eigenvalues --   -1.06585  -1.05558  -0.94763  -0.87777  -0.86482
 Alpha  occ. eigenvalues --   -0.75176  -0.50315  -0.40142  -0.37163  -0.34062
 Alpha  occ. eigenvalues --   -0.29374  -0.27158  -0.25181  -0.24489  -0.21525
 Alpha  occ. eigenvalues --   -0.21048  -0.20490  -0.19221  -0.19015
 Alpha virt. eigenvalues --   -0.09964  -0.05384  -0.02273  -0.00062   0.00346
 Alpha virt. eigenvalues --    0.00586   0.03556   0.04332   0.06148   0.09433
 Alpha virt. eigenvalues --    0.11571   0.13409   0.14480   0.15651   0.17059

 Mulliken atomic charges:
              1
     1  O   -0.746276
     2  O   -0.581897
     3  O   -0.827594
     4  P    1.053295
     5  H   -0.143682
     6  Ca   1.057301
     7  O   -0.895584
     8  Ca   1.084437
 Sum of Mulliken charges=   0.00000

 Dipole moment (field-independent basis, Debye):
    X=     9.2280    Y=    -1.0782    Z=     1.4117  Tot=     9.3974
 Quadrupole moment (field-independent basis, Debye-Ang):
   XX=   -87.8793   YY=   -44.1059   ZZ=   -62.5109
   XY=   -22.5176   XZ=    -2.2695   YZ=    -4.6144

 Normal termination of Gaussian 03 at Mon May  4 20:08:26 2015.
