 Gaussian 03, Revision E.01,
 Gaussian 03:  EM64T-G03RevE.01 11-Sep-2007

 -------------------------------------
 # b3lyp/6-31G(d,p) pop=(ReadRadii,MK)
 -------------------------------------

 ----------
 Ca2HPO4_69
 ----------
 Symbolic Z-matrix:
 Charge =  0 Multiplicity = 1

                         Standard orientation:
 ---------------------------------------------------------------------
 Center     Atomic     Atomic              Coordinates (Angstroms)
 Number     Number      Type              X           Y           Z
 ---------------------------------------------------------------------
    1          8             0        2.343699    0.657368    0.161184
    2          8             0       -0.369996   -1.867360   -0.202491
    3         20             0       -1.767070   -0.186809   -0.181477
    4         15             0        1.415888    1.886911   -0.017174
    5         20             0        1.653911   -1.519628    0.110197
    6          8             0       -0.049001    1.495700   -0.177866
    7          8             0       -3.722411    0.370452    0.344482
    8          1             0       -4.593461    0.575795    0.680718
 ---------------------------------------------------------------------

 SCF Done:  E(RB+HF-LYP) =  -1998.14570914     A.U. after    9 cycles

 The electronic state is 1-A.
 Alpha  occ. eigenvalues -- -145.37215-145.27417 -77.16130 -19.14530 -19.13959
 Alpha  occ. eigenvalues --  -19.00561 -19.00140 -15.44361 -15.34750 -12.57583
 Alpha  occ. eigenvalues --  -12.57537 -12.57375 -12.48008 -12.47908 -12.47718
 Alpha  occ. eigenvalues --   -6.61874  -4.78312  -4.78071  -4.77661  -1.81942
 Alpha  occ. eigenvalues --   -1.72670  -1.09872  -1.09726  -1.08896  -1.01429
 Alpha  occ. eigenvalues --   -1.00981  -1.00054  -0.99664  -0.94877  -0.81745
 Alpha  occ. eigenvalues --   -0.74067  -0.53672  -0.43024  -0.39412  -0.39272
 Alpha  occ. eigenvalues --   -0.34070  -0.31878  -0.30368  -0.27180  -0.20017
 Alpha  occ. eigenvalues --   -0.18469  -0.18364  -0.18281  -0.17957
 Alpha virt. eigenvalues --   -0.09236  -0.06219  -0.02177  -0.01295   0.00312
 Alpha virt. eigenvalues --    0.01512   0.03496   0.04601   0.05460   0.06940
 Alpha virt. eigenvalues --    0.10580   0.11189   0.11914   0.13325   0.14703

 Mulliken atomic charges:
              1
     1  O   -0.687894
     2  O   -0.897065
     3  Ca   1.038635
     4  P    0.713136
     5  Ca   1.036605
     6  O   -0.624766
     7  O   -0.836440
     8  H    0.257789
 Sum of Mulliken charges=   0.00000

 Dipole moment (field-independent basis, Debye):
    X=     8.3669    Y=    -3.0930    Z=    -0.0344  Tot=     8.9204
 Quadrupole moment (field-independent basis, Debye-Ang):
   XX=   -69.1268   YY=   -68.6327   ZZ=   -59.4572
   XY=   -15.8337   XZ=     2.4669   YZ=    -2.3638

 Normal termination of Gaussian 03 at Mon May  4 20:08:48 2015.
