 Gaussian 03, Revision E.01,
 Gaussian 03:  EM64T-G03RevE.01 11-Sep-2007

 -------------------------------------
 # b3lyp/6-31G(d,p) pop=(ReadRadii,MK)
 -------------------------------------

 ---------
 Ca2HPO4_3
 ---------
 Symbolic Z-matrix:
 Charge =  0 Multiplicity = 1

                         Standard orientation:
 ---------------------------------------------------------------------
 Center     Atomic     Atomic              Coordinates (Angstroms)
 Number     Number      Type              X           Y           Z
 ---------------------------------------------------------------------
    1          8             0        1.308258    0.766124   -0.878251
    2          8             0       -1.279493    0.809740   -0.879878
    3         15             0        0.020341    1.171294   -0.033563
    4          8             0        0.042100    2.493640    0.656187
    5          8             0       -0.002597   -0.137839    1.070000
    6         20             0       -1.713553   -1.129906    0.029687
    7         20             0        1.673276   -1.188519    0.029722
    8          1             0       -0.045725   -2.654233   -0.429205
 ---------------------------------------------------------------------

 SCF Done:  E(RB+HF-LYP) =  -1998.15964316     A.U. after    7 cycles

 The electronic state is 1-A.
 Alpha  occ. eigenvalues -- -145.38103-145.38101 -77.12820 -19.06307 -19.04348
 Alpha  occ. eigenvalues --  -19.04348 -19.00659 -15.45173 -15.45170 -12.58380
 Alpha  occ. eigenvalues --  -12.58378 -12.58323 -12.58321 -12.58258 -12.58257
 Alpha  occ. eigenvalues --   -6.57203  -4.73692  -4.73541  -4.73386  -1.82643
 Alpha  occ. eigenvalues --   -1.82591  -1.10924  -1.10247  -1.10236  -1.09899
 Alpha  occ. eigenvalues --   -1.09876  -1.09658  -0.93572  -0.85236  -0.85135
 Alpha  occ. eigenvalues --   -0.84073  -0.44710  -0.36161  -0.35150  -0.32861
 Alpha  occ. eigenvalues --   -0.28741  -0.28491  -0.25547  -0.24703  -0.23466
 Alpha  occ. eigenvalues --   -0.23115  -0.21510  -0.18683  -0.17581
 Alpha virt. eigenvalues --   -0.09098  -0.08187  -0.01639  -0.00490  -0.00056
 Alpha virt. eigenvalues --    0.00404   0.03659   0.03889   0.05970   0.09052
 Alpha virt. eigenvalues --    0.11593   0.13351   0.13378   0.14052   0.16247

 Mulliken atomic charges:
              1
     1  O   -0.761011
     2  O   -0.761062
     3  P    1.254559
     4  O   -0.582696
     5  O   -0.871453
     6  Ca   1.069129
     7  Ca   1.069066
     8  H   -0.416533
 Sum of Mulliken charges=   0.00000

 Dipole moment (field-independent basis, Debye):
    X=    -0.2469    Y=   -14.1454    Z=     1.6604  Tot=    14.2446
 Quadrupole moment (field-independent basis, Debye-Ang):
   XX=   -28.5285   YY=   -79.2847   ZZ=   -71.6955
   XY=    -0.8768   XZ=    -0.0625   YZ=    -3.6028

 Normal termination of Gaussian 03 at Mon May  4 20:08:33 2015.
