 Gaussian 03, Revision E.01,
 Gaussian 03:  EM64T-G03RevE.01 11-Sep-2007

 -------------------------------------
 # b3lyp/6-31G(d,p) pop=(ReadRadii,MK)
 -------------------------------------

 ----------
 Ca2HPO4_36
 ----------
 Symbolic Z-matrix:
 Charge =  0 Multiplicity = 1

                         Standard orientation:
 ---------------------------------------------------------------------
 Center     Atomic     Atomic              Coordinates (Angstroms)
 Number     Number      Type              X           Y           Z
 ---------------------------------------------------------------------
    1          8             0        0.963889    0.516099   -0.440379
    2          8             0        0.793347    2.054478   -0.415723
    3         20             0       -1.224176    1.317122    0.151799
    4         15             0        2.349641   -0.096790    0.423095
    5          1             0        3.234601   -0.196271   -0.703132
    6          8             0       -1.651670   -0.747613    0.926849
    7          8             0       -1.937080   -0.678054   -0.613207
    8         20             0        0.032820   -1.692680   -0.216980
 ---------------------------------------------------------------------

 SCF Done:  E(RB+HF-LYP) =  -1997.90183055     A.U. after    7 cycles

 The electronic state is 1-A.
 Alpha  occ. eigenvalues -- -145.36021-145.34516 -77.04720 -19.16270 -19.09845
 Alpha  occ. eigenvalues --  -19.09600 -19.09066 -15.43154 -15.41692 -12.56359
 Alpha  occ. eigenvalues --  -12.56341 -12.56197 -12.54906 -12.54890 -12.54705
 Alpha  occ. eigenvalues --   -6.51455  -4.68000  -4.67424  -4.67150  -1.80700
 Alpha  occ. eigenvalues --   -1.79377  -1.09240  -1.08483  -1.08212  -1.07531
 Alpha  occ. eigenvalues --   -1.07134  -1.06691  -0.98061  -0.92256  -0.78016
 Alpha  occ. eigenvalues --   -0.73632  -0.54058  -0.39289  -0.37638  -0.35611
 Alpha  occ. eigenvalues --   -0.33377  -0.31917  -0.30316  -0.25219  -0.21369
 Alpha  occ. eigenvalues --   -0.20477  -0.19054  -0.18454  -0.16593
 Alpha virt. eigenvalues --   -0.07252  -0.06153  -0.01502  -0.00161   0.01105
 Alpha virt. eigenvalues --    0.02081   0.02440   0.04303   0.04957   0.06642
 Alpha virt. eigenvalues --    0.07771   0.07895   0.09415   0.12330   0.14081

 Mulliken atomic charges:
              1
     1  O   -0.540798
     2  O   -0.495487
     3  Ca   1.203783
     4  P    0.021592
     5  H   -0.058407
     6  O   -0.594742
     7  O   -0.591427
     8  Ca   1.055487
 Sum of Mulliken charges=   0.00000

 Dipole moment (field-independent basis, Debye):
    X=    -4.4142    Y=    -1.9015    Z=    -0.6182  Tot=     4.8460
 Quadrupole moment (field-independent basis, Debye-Ang):
   XX=   -80.1286   YY=   -48.2855   ZZ=   -67.1057
   XY=   -21.4193   XZ=    -1.9277   YZ=     7.5957

 Normal termination of Gaussian 03 at Mon May  4 20:08:26 2015.
