 Gaussian 03, Revision E.01,
 Gaussian 03:  EM64T-G03RevE.01 11-Sep-2007

 -------------------------------------
 # b3lyp/6-31G(d,p) pop=(ReadRadii,MK)
 -------------------------------------

 ----------
 Ca2HPO4_54
 ----------
 Symbolic Z-matrix:
 Charge =  0 Multiplicity = 1

                         Standard orientation:
 ---------------------------------------------------------------------
 Center     Atomic     Atomic              Coordinates (Angstroms)
 Number     Number      Type              X           Y           Z
 ---------------------------------------------------------------------
    1          8             0        2.054971    0.751389   -0.394970
    2         15             0        2.050719   -0.825345   -0.348849
    3          1             0        2.540509   -1.130883    0.979248
    4          8             0        0.413780   -1.259171    0.038881
    5          8             0       -0.170275   -0.590207    1.306351
    6         20             0       -1.896771   -0.914316   -0.181011
    7          8             0       -1.880559    1.158762   -0.610692
    8         20             0        0.064540    1.565560    0.257857
 ---------------------------------------------------------------------

 SCF Done:  E(RB+HF-LYP) =  -1998.01226354     A.U. after    9 cycles

 The electronic state is 1-A.
 Alpha  occ. eigenvalues -- -145.35443-145.31991 -77.09982 -19.17152 -19.11861
 Alpha  occ. eigenvalues --  -19.07049 -18.99275 -15.42518 -15.39173 -12.55721
 Alpha  occ. eigenvalues --  -12.55678 -12.55590 -12.52397 -12.52352 -12.52186
 Alpha  occ. eigenvalues --   -6.55887  -4.72389  -4.72063  -4.71609  -1.80036
 Alpha  occ. eigenvalues --   -1.76879  -1.08528  -1.07759  -1.07183  -1.05074
 Alpha  occ. eigenvalues --   -1.04656  -1.03962  -0.99829  -0.90394  -0.80064
 Alpha  occ. eigenvalues --   -0.73224  -0.53886  -0.41723  -0.38720  -0.38366
 Alpha  occ. eigenvalues --   -0.33175  -0.28981  -0.27341  -0.24389  -0.22371
 Alpha  occ. eigenvalues --   -0.19092  -0.18253  -0.17386  -0.17018
 Alpha virt. eigenvalues --   -0.08242  -0.04844  -0.01738   0.00940   0.01451
 Alpha virt. eigenvalues --    0.02572   0.02827   0.03565   0.05263   0.07038
 Alpha virt. eigenvalues --    0.09430   0.10140   0.11681   0.13524   0.14800

 Mulliken atomic charges:
              1
     1  O   -0.769548
     2  P    0.704285
     3  H   -0.117433
     4  O   -0.506811
     5  O   -0.536370
     6  Ca   1.057035
     7  O   -0.891406
     8  Ca   1.060249
 Sum of Mulliken charges=   0.00000

 Dipole moment (field-independent basis, Debye):
    X=    -4.8853    Y=    -1.0468    Z=     1.8240  Tot=     5.3188
 Quadrupole moment (field-independent basis, Debye-Ang):
   XX=   -68.4190   YY=   -51.7875   ZZ=   -69.2178
   XY=    20.4363   XZ=    -0.0331   YZ=    10.4669

 Normal termination of Gaussian 03 at Mon May  4 20:08:43 2015.
