 Gaussian 03, Revision E.01,
 Gaussian 03:  EM64T-G03RevE.01 11-Sep-2007

 -------------------------------------
 # b3lyp/6-31G(d,p) pop=(ReadRadii,MK)
 -------------------------------------

 ----------
 Ca2HPO4_47
 ----------
 Symbolic Z-matrix:
 Charge =  0 Multiplicity = 1

                         Standard orientation:
 ---------------------------------------------------------------------
 Center     Atomic     Atomic              Coordinates (Angstroms)
 Number     Number      Type              X           Y           Z
 ---------------------------------------------------------------------
    1          8             0        1.474735   -1.365025    0.000000
    2          8             0        0.354212   -2.398768    0.000000
    3          8             0       -1.919506   -0.867003    0.000000
    4         15             0       -0.317057   -0.850661    0.000000
    5         20             0       -2.234501    1.347547    0.000000
    6          8             0        0.000000    0.802169    0.000000
    7         20             0        2.315560    0.715171    0.000000
    8          1             0        3.859157    2.134590    0.000000
 ---------------------------------------------------------------------

 SCF Done:  E(RB+HF-LYP) =  -1997.90108969     A.U. after   10 cycles

 The electronic state is 1-A'.
 Alpha  occ. eigenvalues -- -145.39254-145.37655 -77.23862 -19.21843 -19.19060
 Alpha  occ. eigenvalues --  -19.15839 -19.14705 -15.46431 -15.44899 -12.59629
 Alpha  occ. eigenvalues --  -12.59552 -12.59512 -12.58132 -12.58071 -12.57890
 Alpha  occ. eigenvalues --   -6.68075  -4.84439  -4.84418  -4.84227  -1.83879
 Alpha  occ. eigenvalues --   -1.82493  -1.12138  -1.11497  -1.11414  -1.11243
 Alpha  occ. eigenvalues --   -1.10426  -1.10119  -1.08650  -0.98298  -0.94087
 Alpha  occ. eigenvalues --   -0.84790  -0.58388  -0.46821  -0.45709  -0.43923
 Alpha  occ. eigenvalues --   -0.42919  -0.37061  -0.36734  -0.32318  -0.32083
 Alpha  occ. eigenvalues --   -0.29981  -0.26967  -0.21982  -0.15366
 Alpha virt. eigenvalues --   -0.09664  -0.07187  -0.04984  -0.03792  -0.02820
 Alpha virt. eigenvalues --   -0.01334  -0.00989   0.00063   0.01127   0.05136
 Alpha virt. eigenvalues --    0.05516   0.08621   0.10712   0.12286   0.12540

 Mulliken atomic charges:
              1
     1  O   -0.536095
     2  O   -0.277424
     3  O   -0.626003
     4  P    1.113174
     5  Ca   0.556319
     6  O   -0.747667
     7  Ca   0.807646
     8  H   -0.289950
 Sum of Mulliken charges=   0.00000

 Dipole moment (field-independent basis, Debye):
    X=    -3.3918    Y=     2.2990    Z=     0.0000  Tot=     4.0975
 Quadrupole moment (field-independent basis, Debye-Ang):
   XX=   -80.5978   YY=   -86.8246   ZZ=   -68.3991
   XY=   -18.5639   XZ=     0.0000   YZ=     0.0000

 Normal termination of Gaussian 03 at Mon May  4 20:41:35 2015.
