 Gaussian 03, Revision E.01,
 Gaussian 03:  EM64T-G03RevE.01 11-Sep-2007

 -------------------------------------
 # b3lyp/6-31G(d,p) pop=(ReadRadii,MK)
 -------------------------------------

 ----------
 Ca2HPO4_31
 ----------
 Symbolic Z-matrix:
 Charge =  0 Multiplicity = 1

                         Standard orientation:
 ---------------------------------------------------------------------
 Center     Atomic     Atomic              Coordinates (Angstroms)
 Number     Number      Type              X           Y           Z
 ---------------------------------------------------------------------
    1          8             0       -0.107926   -1.108378    0.012969
    2          8             0        2.121309    0.053958   -0.477366
    3          8             0        2.185019    0.940916    0.759767
    4         15             0        1.489270   -1.435047    0.041127
    5          1             0        1.684660   -1.968997   -1.295080
    6         20             0       -2.272620   -0.728331    0.110842
    7          8             0       -1.993912    1.341840   -0.107192
    8         20             0        0.189638    1.411732   -0.152204
 ---------------------------------------------------------------------

 SCF Done:  E(RB+HF-LYP) =  -1997.99589755     A.U. after    8 cycles

 The electronic state is 1-A.
 Alpha  occ. eigenvalues -- -145.37334-145.30872 -77.10473 -19.15092 -19.09509
 Alpha  occ. eigenvalues --  -19.08049 -19.00741 -15.44412 -15.38133 -12.57630
 Alpha  occ. eigenvalues --  -12.57561 -12.57475 -12.51365 -12.51336 -12.51099
 Alpha  occ. eigenvalues --   -6.56343  -4.72741  -4.72597  -4.72051  -1.81903
 Alpha  occ. eigenvalues --   -1.75971  -1.09761  -1.09605  -1.08904  -1.04785
 Alpha  occ. eigenvalues --   -1.04036  -1.03603  -0.98362  -0.91335  -0.76524
 Alpha  occ. eigenvalues --   -0.74545  -0.54065  -0.40150  -0.39703  -0.36825
 Alpha  occ. eigenvalues --   -0.32993  -0.29953  -0.28451  -0.20698  -0.19996
 Alpha  occ. eigenvalues --   -0.19204  -0.18674  -0.18512  -0.18263
 Alpha virt. eigenvalues --   -0.09902  -0.03216  -0.02214  -0.00452   0.00829
 Alpha virt. eigenvalues --    0.01130   0.04281   0.04937   0.05926   0.06971
 Alpha virt. eigenvalues --    0.09190   0.09557   0.11490   0.11960   0.13672

 Mulliken atomic charges:
              1
     1  O   -0.837342
     2  O   -0.465709
     3  O   -0.493406
     4  P    0.737808
     5  H   -0.128645
     6  Ca   1.095574
     7  O   -0.890844
     8  Ca   0.982563
 Sum of Mulliken charges=   0.00000

 Dipole moment (field-independent basis, Debye):
    X=    -8.5512    Y=    -2.8408    Z=    -1.3260  Tot=     9.1077
 Quadrupole moment (field-independent basis, Debye-Ang):
   XX=   -68.9246   YY=   -59.6191   ZZ=   -63.9257
   XY=    20.4238   XZ=    -6.7608   YZ=    -2.0836

 Normal termination of Gaussian 03 at Mon May  4 20:08:24 2015.
