 Gaussian 03, Revision E.01,
 Gaussian 03:  EM64T-G03RevE.01 11-Sep-2007

 -------------------------------------
 # b3lyp/6-31G(d,p) pop=(ReadRadii,MK)
 -------------------------------------

 ----------
 Ca2HPO4_46
 ----------
 Symbolic Z-matrix:
 Charge =  0 Multiplicity = 1

                         Standard orientation:
 ---------------------------------------------------------------------
 Center     Atomic     Atomic              Coordinates (Angstroms)
 Number     Number      Type              X           Y           Z
 ---------------------------------------------------------------------
    1          8             0       -1.656429   -3.526190    0.000000
    2          8             0       -0.278844   -3.958810    0.000000
    3          8             0        1.654310    2.386811    0.000000
    4          8             0        0.000000    0.488161    0.000000
    5         15             0        1.605870    0.831357    0.000000
    6         20             0       -0.345243   -1.780390    0.000000
    7          1             0       -2.364781    3.967480    0.000000
    8         20             0       -0.628535    2.802510    0.000000
 ---------------------------------------------------------------------

 SCF Done:  E(RB+HF-LYP) =  -1997.94919447     A.U. after   13 cycles

 The electronic state is 1-A'.
 Alpha  occ. eigenvalues -- -145.39701-145.37385 -77.17338 -19.17636 -19.15816
 Alpha  occ. eigenvalues --  -19.09814 -19.09557 -15.46978 -15.44594 -12.60221
 Alpha  occ. eigenvalues --  -12.60157 -12.59943 -12.57852 -12.57781 -12.57567
 Alpha  occ. eigenvalues --   -6.63287  -4.79604  -4.79445  -4.79198  -1.84595
 Alpha  occ. eigenvalues --   -1.82275  -1.12633  -1.12318  -1.11792  -1.10394
 Alpha  occ. eigenvalues --   -1.10353  -1.09986  -1.01560  -0.96757  -0.95151
 Alpha  occ. eigenvalues --   -0.69725  -0.56539  -0.44444  -0.43358  -0.41386
 Alpha  occ. eigenvalues --   -0.34121  -0.34021  -0.33734  -0.31225  -0.30557
 Alpha  occ. eigenvalues --   -0.30314  -0.23653  -0.16635  -0.13142
 Alpha virt. eigenvalues --   -0.10963  -0.07573  -0.05590  -0.03711  -0.02583
 Alpha virt. eigenvalues --   -0.00562  -0.00027   0.01903   0.03605   0.05303
 Alpha virt. eigenvalues --    0.07492   0.08552   0.09947   0.10814   0.11791

 Mulliken atomic charges:
              1
     1  O   -0.439260
     2  O   -0.428894
     3  O   -0.673434
     4  O   -0.818513
     5  P    0.589128
     6  Ca   1.172309
     7  H   -0.279581
     8  Ca   0.878245
 Sum of Mulliken charges=   0.00000

 Dipole moment (field-independent basis, Debye):
    X=     2.7866    Y=     5.5452    Z=     0.0000  Tot=     6.2060
 Quadrupole moment (field-independent basis, Debye-Ang):
   XX=   -86.4618   YY=  -119.1312   ZZ=   -59.8139
   XY=    -2.9427   XZ=     0.0000   YZ=     0.0000

 Normal termination of Gaussian 03 at Mon May  4 20:41:33 2015.
