 Gaussian 03, Revision E.01,
 Gaussian 03:  EM64T-G03RevE.01 11-Sep-2007

 -------------------------------------
 # b3lyp/6-31G(d,p) pop=(ReadRadii,MK)
 -------------------------------------

 ----------
 Ca2HPO4_60
 ----------
 Symbolic Z-matrix:
 Charge =  0 Multiplicity = 1

                         Standard orientation:
 ---------------------------------------------------------------------
 Center     Atomic     Atomic              Coordinates (Angstroms)
 Number     Number      Type              X           Y           Z
 ---------------------------------------------------------------------
    1          8             0        0.183517    2.437830    0.678991
    2          1             0        1.087836    2.774972    0.616791
    3          8             0        1.422850    0.740409   -0.818579
    4         15             0        0.091437    1.004320   -0.081873
    5          8             0       -1.227341    0.948981   -0.870461
    6         20             0       -1.975387   -1.050683    0.024648
    7          8             0       -0.025839   -0.177867    0.995985
    8         20             0        1.711143   -1.421047    0.011543
 ---------------------------------------------------------------------

 SCF Done:  E(RB+HF-LYP) =  -1998.17688075     A.U. after    8 cycles

 The electronic state is 1-A.
 Alpha  occ. eigenvalues -- -145.38750-145.38698 -77.20456 -19.15937 -19.11123
 Alpha  occ. eigenvalues --  -19.10017 -19.09701 -15.45849 -15.45801 -12.59058
 Alpha  occ. eigenvalues --  -12.59009 -12.58996 -12.58947 -12.58926 -12.58876
 Alpha  occ. eigenvalues --   -6.64933  -4.81374  -4.81264  -4.81165  -1.83139
 Alpha  occ. eigenvalues --   -1.83089  -1.11234  -1.10737  -1.10701  -1.10491
 Alpha  occ. eigenvalues --   -1.10403  -1.10365  -1.04231  -0.97438  -0.92347
 Alpha  occ. eigenvalues --   -0.91618  -0.57044  -0.47075  -0.42595  -0.41696
 Alpha  occ. eigenvalues --   -0.38388  -0.34034  -0.33734  -0.32737  -0.30557
 Alpha  occ. eigenvalues --   -0.27885  -0.27104  -0.26010  -0.14241
 Alpha virt. eigenvalues --   -0.09490  -0.04075  -0.02310  -0.01207  -0.00415
 Alpha virt. eigenvalues --   -0.00037   0.02845   0.05074   0.08060   0.08986
 Alpha virt. eigenvalues --    0.09915   0.11715   0.13358   0.13748   0.14191

 Mulliken atomic charges:
              1
     1  O   -0.546107
     2  H    0.338363
     3  O   -0.709091
     4  P    1.255595
     5  O   -0.687531
     6  Ca   0.587422
     7  O   -0.792501
     8  Ca   0.553850
 Sum of Mulliken charges=   0.00000

 Dipole moment (field-independent basis, Debye):
    X=     0.7059    Y=    -2.5049    Z=     1.8025  Tot=     3.1657
 Quadrupole moment (field-independent basis, Debye-Ang):
   XX=   -55.1626   YY=   -79.9866   ZZ=   -78.4267
   XY=     2.5177   XZ=     1.1040   YZ=     2.6673

 Normal termination of Gaussian 03 at Mon May  4 20:08:40 2015.
