 Gaussian 03, Revision E.01,
 Gaussian 03:  EM64T-G03RevE.01 11-Sep-2007

 -------------------------------------
 # b3lyp/6-31G(d,p) pop=(ReadRadii,MK)
 -------------------------------------

 ----------
 Ca2HPO4_16
 ----------
 Symbolic Z-matrix:
 Charge =  0 Multiplicity = 1

                         Standard orientation:
 ---------------------------------------------------------------------
 Center     Atomic     Atomic              Coordinates (Angstroms)
 Number     Number      Type              X           Y           Z
 ---------------------------------------------------------------------
    1          8             0       -0.048070    1.492419   -0.174541
    2          8             0       -0.370588   -1.868611   -0.193260
    3         20             0        1.654847   -1.518354    0.106412
    4         15             0        1.416193    1.886916   -0.015736
    5          8             0        2.346531    0.658309    0.156197
    6         20             0       -1.767881   -0.188263   -0.176787
    7          8             0       -3.725680    0.374342    0.334041
    8          1             0       -4.599769    0.576915    0.664043
 ---------------------------------------------------------------------

 SCF Done:  E(RB+HF-LYP) =  -1998.14571235     A.U. after    9 cycles

 The electronic state is 1-A.
 Alpha  occ. eigenvalues -- -145.37212-145.27412 -77.16137 -19.14532 -19.13963
 Alpha  occ. eigenvalues --  -19.00555 -19.00135 -15.44357 -15.34745 -12.57579
 Alpha  occ. eigenvalues --  -12.57534 -12.57372 -12.48003 -12.47903 -12.47713
 Alpha  occ. eigenvalues --   -6.61881  -4.78319  -4.78078  -4.77668  -1.81939
 Alpha  occ. eigenvalues --   -1.72666  -1.09870  -1.09724  -1.08893  -1.01428
 Alpha  occ. eigenvalues --   -1.00979  -1.00050  -0.99665  -0.94876  -0.81741
 Alpha  occ. eigenvalues --   -0.74063  -0.53676  -0.43025  -0.39419  -0.39277
 Alpha  occ. eigenvalues --   -0.34066  -0.31879  -0.30367  -0.27191  -0.20012
 Alpha  occ. eigenvalues --   -0.18461  -0.18361  -0.18277  -0.17960
 Alpha virt. eigenvalues --   -0.09231  -0.06228  -0.02174  -0.01299   0.00317
 Alpha virt. eigenvalues --    0.01528   0.03480   0.04597   0.05464   0.06938
 Alpha virt. eigenvalues --    0.10568   0.11185   0.11912   0.13334   0.14714

 Mulliken atomic charges:
              1
     1  O   -0.624904
     2  O   -0.897063
     3  Ca   1.035932
     4  P    0.713327
     5  O   -0.687882
     6  Ca   1.039394
     7  O   -0.836552
     8  H    0.257747
 Sum of Mulliken charges=   0.00000

 Dipole moment (field-independent basis, Debye):
    X=     8.3703    Y=    -3.0947    Z=    -0.0465  Tot=     8.9242
 Quadrupole moment (field-independent basis, Debye-Ang):
   XX=   -69.1280   YY=   -68.6671   ZZ=   -59.4539
   XY=   -15.7723   XZ=     2.3675   YZ=    -2.2561

 Normal termination of Gaussian 03 at Mon May  4 20:08:28 2015.
