 Gaussian 03, Revision E.01,
 Gaussian 03:  EM64T-G03RevE.01 11-Sep-2007

 -------------------------------------
 # b3lyp/6-31G(d,p) pop=(ReadRadii,MK)
 -------------------------------------

 ----------
 Ca2HPO4_67
 ----------
 Symbolic Z-matrix:
 Charge =  0 Multiplicity = 1

                         Standard orientation:
 ---------------------------------------------------------------------
 Center     Atomic     Atomic              Coordinates (Angstroms)
 Number     Number      Type              X           Y           Z
 ---------------------------------------------------------------------
    1          8             0       -3.185380   -1.040909    0.006284
    2         15             0       -3.769460    0.387791   -0.004110
    3          8             0       -2.589610    1.382081   -0.004918
    4         20             0       -0.908144   -0.313822    0.008395
    5          8             0        1.170050   -0.683405   -0.005100
    6         20             0        3.239420   -0.198251   -0.010549
    7          8             0        5.105030    0.739553    0.013354
    8          1             0        5.915670    1.246040    0.027754
 ---------------------------------------------------------------------

 SCF Done:  E(RB+HF-LYP) =  -1998.15328415     A.U. after    8 cycles

 The electronic state is 1-A.
 Alpha  occ. eigenvalues -- -145.33345-145.31069 -77.15280 -19.13438 -19.13221
 Alpha  occ. eigenvalues --  -19.03677 -19.00241 -15.40641 -15.38488 -12.53893
 Alpha  occ. eigenvalues --  -12.53825 -12.53592 -12.51721 -12.51717 -12.51379
 Alpha  occ. eigenvalues --   -6.61202  -4.77634  -4.77368  -4.76999  -1.78461
 Alpha  occ. eigenvalues --   -1.76521  -1.06682  -1.06324  -1.06206  -1.04712
 Alpha  occ. eigenvalues --   -1.04697  -1.03628  -0.99393  -0.93868  -0.84856
 Alpha  occ. eigenvalues --   -0.74506  -0.52142  -0.40814  -0.39237  -0.38757
 Alpha  occ. eigenvalues --   -0.37277  -0.30421  -0.29276  -0.26998  -0.21473
 Alpha  occ. eigenvalues --   -0.21423  -0.20691  -0.18993  -0.18970
 Alpha virt. eigenvalues --   -0.05839  -0.05617  -0.03062  -0.00263   0.00406
 Alpha virt. eigenvalues --    0.01339   0.02407   0.03488   0.04797   0.08490
 Alpha virt. eigenvalues --    0.09077   0.11849   0.12912   0.14169   0.15366

 Mulliken atomic charges:
              1
     1  O   -0.645532
     2  P    0.737421
     3  O   -0.643674
     4  Ca   1.017890
     5  O   -0.926557
     6  Ca   1.020845
     7  O   -0.824930
     8  H    0.264537
 Sum of Mulliken charges=   0.00000

 Dipole moment (field-independent basis, Debye):
    X=     0.8903    Y=    -1.1651    Z=    -0.0138  Tot=     1.4664
 Quadrupole moment (field-independent basis, Debye-Ang):
   XX=   -85.3474   YY=   -70.4991   ZZ=   -59.0814
   XY=    -5.2239   XZ=    -0.2640   YZ=     0.0447

 Normal termination of Gaussian 03 at Mon May  4 20:08:44 2015.
