 Gaussian 03, Revision E.01,
 Gaussian 03:  EM64T-G03RevE.01 11-Sep-2007

 -------------------------------------
 # b3lyp/6-31G(d,p) pop=(ReadRadii,MK)
 -------------------------------------

 ----------
 Ca2HPO4_68
 ----------
 Symbolic Z-matrix:
 Charge =  0 Multiplicity = 1

                         Standard orientation:
 ---------------------------------------------------------------------
 Center     Atomic     Atomic              Coordinates (Angstroms)
 Number     Number      Type              X           Y           Z
 ---------------------------------------------------------------------
    1          8             0       -2.195599    0.818145   -0.396476
    2          8             0        0.318597    1.661720   -0.575582
    3         15             0       -0.848281    1.202540    0.365471
    4         20             0       -2.033549   -1.373899   -0.160443
    5          8             0       -0.311208   -0.350148    0.837844
    6         20             0        1.849841    0.061574    0.018325
    7          8             0        3.673331   -0.932182   -0.164421
    8          1             0        4.517421   -1.371882   -0.250643
 ---------------------------------------------------------------------

 SCF Done:  E(RB+HF-LYP) =  -1998.16433344     A.U. after    9 cycles

 The electronic state is 1-A.
 Alpha  occ. eigenvalues -- -145.40401-145.31636 -77.12911 -19.10145 -19.09296
 Alpha  occ. eigenvalues --  -19.07959 -19.03131 -15.47500 -15.38932 -12.60708
 Alpha  occ. eigenvalues --  -12.60619 -12.60597 -12.52184 -12.52108 -12.51901
 Alpha  occ. eigenvalues --   -6.58127  -4.74510  -4.74392  -4.74108  -1.84880
 Alpha  occ. eigenvalues --   -1.76766  -1.12598  -1.12528  -1.12130  -1.04957
 Alpha  occ. eigenvalues --   -1.04668  -1.04552  -0.95399  -0.89286  -0.88361
 Alpha  occ. eigenvalues --   -0.84267  -0.49254  -0.38682  -0.37675  -0.36773
 Alpha  occ. eigenvalues --   -0.35953  -0.31787  -0.28808  -0.26509  -0.25670
 Alpha  occ. eigenvalues --   -0.25117  -0.20961  -0.20847  -0.17031
 Alpha virt. eigenvalues --   -0.11244  -0.04234  -0.02805  -0.01525   0.00695
 Alpha virt. eigenvalues --    0.02208   0.03038   0.04931   0.05794   0.10476
 Alpha virt. eigenvalues --    0.10905   0.11146   0.11475   0.13683   0.14763

 Mulliken atomic charges:
              1
     1  O   -0.696884
     2  O   -0.685597
     3  P    0.922607
     4  Ca   0.850774
     5  O   -0.821936
     6  Ca   0.995242
     7  O   -0.828095
     8  H    0.263889
 Sum of Mulliken charges=   0.00000

 Dipole moment (field-independent basis, Debye):
    X=    -3.6936    Y=    -6.9390    Z=     0.5495  Tot=     7.8800
 Quadrupole moment (field-independent basis, Debye-Ang):
   XX=   -65.1213   YY=   -65.9218   ZZ=   -68.5881
   XY=    20.7989   XZ=     0.3831   YZ=     4.4975

 Normal termination of Gaussian 03 at Mon May  4 20:08:46 2015.
