 Gaussian 03, Revision E.01,
 Gaussian 03:  EM64T-G03RevE.01 11-Sep-2007

 -------------------------------------
 # b3lyp/6-31G(d,p) pop=(ReadRadii,MK)
 -------------------------------------

 ----------
 Ca2HPO4_22
 ----------
 Symbolic Z-matrix:
 Charge =  0 Multiplicity = 1

                         Standard orientation:
 ---------------------------------------------------------------------
 Center     Atomic     Atomic              Coordinates (Angstroms)
 Number     Number      Type              X           Y           Z
 ---------------------------------------------------------------------
    1          8             0        2.721592   -0.429901    0.000000
    2         15             0        1.001322   -0.437184    0.000000
    3          8             0        3.156214   -1.832324    0.000000
    4          1             0        2.319075   -2.343855    0.000000
    5          8             0        0.197680   -1.823669    0.000000
    6         20             0       -1.893137   -0.843745    0.000000
    7         20             0       -1.404003    2.594668    0.000000
    8          8             0        0.000000    0.821286    0.000000
 ---------------------------------------------------------------------

 SCF Done:  E(RB+HF-LYP) =  -1997.85799925     A.U. after   11 cycles

 The electronic state is 1-A'.
 Alpha  occ. eigenvalues -- -145.41338-145.39017 -77.20671 -19.20212 -19.19302
 Alpha  occ. eigenvalues --  -19.15671 -19.15591 -15.48457 -15.46201 -12.61656
 Alpha  occ. eigenvalues --  -12.61613 -12.61524 -12.59374 -12.59363 -12.59249
 Alpha  occ. eigenvalues --   -6.65462  -4.81797  -4.81685  -4.81590  -1.85772
 Alpha  occ. eigenvalues --   -1.83568  -1.13487  -1.13337  -1.13003  -1.11071
 Alpha  occ. eigenvalues --   -1.11037  -1.10866  -1.09581  -0.99709  -0.95336
 Alpha  occ. eigenvalues --   -0.87860  -0.59025  -0.50978  -0.45314  -0.41733
 Alpha  occ. eigenvalues --   -0.41189  -0.38960  -0.37355  -0.36169  -0.32598
 Alpha  occ. eigenvalues --   -0.32583  -0.25404  -0.17696  -0.12735
 Alpha virt. eigenvalues --   -0.10085  -0.06156  -0.05207  -0.04628  -0.02093
 Alpha virt. eigenvalues --   -0.01690  -0.01260   0.01040   0.02200   0.03238
 Alpha virt. eigenvalues --    0.07330   0.07796   0.09001   0.10731   0.12325

 Mulliken atomic charges:
              1
     1  O   -0.278819
     2  P    0.881182
     3  O   -0.336085
     4  H    0.341787
     5  O   -0.640193
     6  Ca   0.429259
     7  Ca   0.309376
     8  O   -0.706507
 Sum of Mulliken charges=   0.00000

 Dipole moment (field-independent basis, Debye):
    X=    -4.8447    Y=    -0.4151    Z=     0.0000  Tot=     4.8624
 Quadrupole moment (field-independent basis, Debye-Ang):
   XX=   -89.1419   YY=   -75.8436   ZZ=   -75.2021
   XY=    15.2566   XZ=     0.0000   YZ=     0.0000

 Normal termination of Gaussian 03 at Mon May  4 20:41:36 2015.
