 Gaussian 03, Revision E.01,
 Gaussian 03:  EM64T-G03RevE.01 11-Sep-2007

 -------------------------------------
 # b3lyp/6-31G(d,p) pop=(ReadRadii,MK)
 -------------------------------------

 ----------
 Ca2HPO4_37
 ----------
 Symbolic Z-matrix:
 Charge =  0 Multiplicity = 1

                         Standard orientation:
 ---------------------------------------------------------------------
 Center     Atomic     Atomic              Coordinates (Angstroms)
 Number     Number      Type              X           Y           Z
 ---------------------------------------------------------------------
    1          8             0       -1.157838   -1.126730    0.129195
    2          8             0       -0.373213   -0.554909    1.376170
    3         20             0       -0.041034    1.531321    0.319411
    4         15             0       -2.317929   -0.061522   -0.568483
    5          1             0       -3.317539   -0.137632    0.457083
    6          8             0        1.310900    0.571632   -1.225770
    7          8             0        2.098340    0.728984    0.115546
    8         20             0        1.194082   -1.325888   -0.073960
 ---------------------------------------------------------------------

 SCF Done:  E(RB+HF-LYP) =  -1997.91951651     A.U. after    8 cycles

 The electronic state is 1-A.
 Alpha  occ. eigenvalues -- -145.35882-145.33913 -77.04289 -19.16995 -19.10727
 Alpha  occ. eigenvalues --  -19.08100 -19.08093 -15.42937 -15.41012 -12.56130
 Alpha  occ. eigenvalues --  -12.56100 -12.56037 -12.54225 -12.54169 -12.54085
 Alpha  occ. eigenvalues --   -6.51077  -4.67634  -4.67052  -4.66760  -1.80455
 Alpha  occ. eigenvalues --   -1.78538  -1.09128  -1.08338  -1.07920  -1.06361
 Alpha  occ. eigenvalues --   -1.06016  -1.05777  -0.98278  -0.90955  -0.80016
 Alpha  occ. eigenvalues --   -0.71885  -0.54021  -0.39829  -0.37054  -0.35860
 Alpha  occ. eigenvalues --   -0.31709  -0.30260  -0.28984  -0.26163  -0.24295
 Alpha  occ. eigenvalues --   -0.21012  -0.18563  -0.17152  -0.16100
 Alpha virt. eigenvalues --   -0.07748  -0.05565  -0.02045   0.00785   0.01016
 Alpha virt. eigenvalues --    0.01951   0.03040   0.03877   0.04862   0.06933
 Alpha virt. eigenvalues --    0.08427   0.09277   0.09860   0.13192   0.14160

 Mulliken atomic charges:
              1
     1  O   -0.485082
     2  O   -0.542422
     3  Ca   1.067307
     4  P   -0.002961
     5  H   -0.060294
     6  O   -0.583440
     7  O   -0.586467
     8  Ca   1.193360
 Sum of Mulliken charges=   0.00000

 Dipole moment (field-independent basis, Debye):
    X=     3.5167    Y=    -1.3651    Z=     1.7197  Tot=     4.1459
 Quadrupole moment (field-independent basis, Debye-Ang):
   XX=   -79.1983   YY=   -39.7144   ZZ=   -73.2744
   XY=   -19.7638   XZ=     1.7844   YZ=     8.1668

 Normal termination of Gaussian 03 at Mon May  4 20:08:25 2015.
