 Gaussian 03, Revision E.01,
 Gaussian 03:  EM64T-G03RevE.01 11-Sep-2007

 -------------------------------------
 # b3lyp/6-31G(d,p) pop=(ReadRadii,MK)
 -------------------------------------

 ----------
 Ca2HPO4_62
 ----------
 Symbolic Z-matrix:
 Charge =  0 Multiplicity = 1

                         Standard orientation:
 ---------------------------------------------------------------------
 Center     Atomic     Atomic              Coordinates (Angstroms)
 Number     Number      Type              X           Y           Z
 ---------------------------------------------------------------------
    1          8             0       -2.558490    1.246141   -0.007922
    2         15             0       -3.470911    0.000556   -0.000439
    3          8             0       -2.559661   -1.245849    0.007902
    4          8             0        1.556149   -0.013294   -0.788339
    5          8             0        1.556479    0.011717    0.788378
    6         20             0       -0.531335   -0.000392    0.000578
    7         20             0        3.648739    0.000417   -0.000235
    8          1             0        5.759749    0.001430   -0.000424
 ---------------------------------------------------------------------

 SCF Done:  E(RB+HF-LYP) =  -1998.07639865     A.U. after    6 cycles

 The electronic state is 1-A.
 Alpha  occ. eigenvalues -- -145.35002-145.34946 -77.15849 -19.13872 -19.13863
 Alpha  occ. eigenvalues --  -19.11728 -19.11716 -15.42336 -15.42174 -12.55582
 Alpha  occ. eigenvalues --  -12.55525 -12.55390 -12.55378 -12.55272 -12.55172
 Alpha  occ. eigenvalues --   -6.61768  -4.78201  -4.77934  -4.77563  -1.80085
 Alpha  occ. eigenvalues --   -1.79875  -1.08759  -1.08191  -1.07926  -1.07809
 Alpha  occ. eigenvalues --   -1.07715  -1.07071  -1.00242  -0.94402  -0.93699
 Alpha  occ. eigenvalues --   -0.75907  -0.52717  -0.41386  -0.39868  -0.39300
 Alpha  occ. eigenvalues --   -0.35482  -0.34396  -0.32531  -0.30956  -0.29775
 Alpha  occ. eigenvalues --   -0.27417  -0.24227  -0.21412  -0.19876
 Alpha virt. eigenvalues --   -0.06392  -0.04143  -0.02475  -0.02352  -0.01105
 Alpha virt. eigenvalues --    0.00746   0.01356   0.04256   0.05519   0.05668
 Alpha virt. eigenvalues --    0.08285   0.08500   0.11703   0.13730   0.13830

 Mulliken atomic charges:
              1
     1  O   -0.647474
     2  P    0.743904
     3  O   -0.647611
     4  O   -0.616535
     5  O   -0.616862
     6  Ca   1.125479
     7  Ca   0.938144
     8  H   -0.279045
 Sum of Mulliken charges=   0.00000

 Dipole moment (field-independent basis, Debye):
    X=    -1.4265    Y=     0.0010    Z=     0.0020  Tot=     1.4265
 Quadrupole moment (field-independent basis, Debye-Ang):
   XX=  -108.1282   YY=   -68.8478   ZZ=   -62.3122
   XY=    -0.0138   XZ=    -0.0015   YZ=     0.0030

 Normal termination of Gaussian 03 at Mon May  4 20:08:37 2015.
