 Gaussian 03, Revision E.01,
 Gaussian 03:  EM64T-G03RevE.01 11-Sep-2007

 -------------------------------------
 # b3lyp/6-31G(d,p) pop=(ReadRadii,MK)
 -------------------------------------

 ----------
 Ca2HPO4_35
 ----------
 Symbolic Z-matrix:
 Charge =  0 Multiplicity = 1

                         Standard orientation:
 ---------------------------------------------------------------------
 Center     Atomic     Atomic              Coordinates (Angstroms)
 Number     Number      Type              X           Y           Z
 ---------------------------------------------------------------------
    1          8             0       -1.521960    0.699747    0.869787
    2          8             0       -0.230882    0.215010    1.479499
    3         15             0       -1.991391   -0.303415   -0.412062
    4          1             0       -1.900142   -1.563529    0.351616
    5          8             0       -0.616400   -0.375087   -1.233571
    6         20             0        0.671039    1.498869   -0.233764
    7          8             0        2.319380    0.120731   -0.248145
    8         20             0        0.937456   -1.457291    0.178200
 ---------------------------------------------------------------------

 SCF Done:  E(RB+HF-LYP) =  -1998.00556191     A.U. after    8 cycles

 The electronic state is 1-A.
 Alpha  occ. eigenvalues -- -145.34477-145.34162 -77.12131 -19.17283 -19.11546
 Alpha  occ. eigenvalues --  -19.09734 -18.98113 -15.41511 -15.41192 -12.54696
 Alpha  occ. eigenvalues --  -12.54683 -12.54604 -12.54392 -12.54362 -12.54278
 Alpha  occ. eigenvalues --   -6.58071  -4.74484  -4.74293  -4.73816  -1.78995
 Alpha  occ. eigenvalues --   -1.78635  -1.07996  -1.06699  -1.06490  -1.06182
 Alpha  occ. eigenvalues --   -1.06109  -1.05321  -1.01794  -0.92599  -0.79919
 Alpha  occ. eigenvalues --   -0.72152  -0.55414  -0.43236  -0.40445  -0.39112
 Alpha  occ. eigenvalues --   -0.34491  -0.31335  -0.28482  -0.24233  -0.22333
 Alpha  occ. eigenvalues --   -0.21222  -0.17849  -0.16242  -0.15736
 Alpha virt. eigenvalues --   -0.07430  -0.06090  -0.00286   0.00621   0.01273
 Alpha virt. eigenvalues --    0.01441   0.02949   0.04264   0.05152   0.07167
 Alpha virt. eigenvalues --    0.07697   0.09240   0.10242   0.14234   0.15687

 Mulliken atomic charges:
              1
     1  O   -0.430925
     2  O   -0.528965
     3  P    0.737195
     4  H   -0.168337
     5  O   -0.804968
     6  Ca   1.056093
     7  O   -0.882826
     8  Ca   1.022732
 Sum of Mulliken charges=   0.00000

 Dipole moment (field-independent basis, Debye):
    X=     0.2916    Y=    -0.5382    Z=    -0.5490  Tot=     0.8223
 Quadrupole moment (field-independent basis, Debye-Ang):
   XX=   -88.3510   YY=   -33.0176   ZZ=   -73.9800
   XY=    -2.6260   XZ=     3.6460   YZ=    -6.7807

 Normal termination of Gaussian 03 at Mon May  4 20:08:27 2015.
