 Gaussian 03, Revision E.01,
 Gaussian 03:  EM64T-G03RevE.01 11-Sep-2007

 -------------------------------------
 # b3lyp/6-31G(d,p) pop=(ReadRadii,MK)
 -------------------------------------

 ----------
 Ca2HPO4_32
 ----------
 Symbolic Z-matrix:
 Charge =  0 Multiplicity = 1

                         Standard orientation:
 ---------------------------------------------------------------------
 Center     Atomic     Atomic              Coordinates (Angstroms)
 Number     Number      Type              X           Y           Z
 ---------------------------------------------------------------------
    1          8             0       -1.949359    0.483499    0.105243
    2          8             0       -3.116139   -0.430881   -0.183855
    3         15             0       -1.504789   -1.175840    0.082714
    4          1             0       -1.330929   -1.451470   -1.317030
    5          8             0        0.366505   -0.618843   -0.191559
    6          8             0        0.909835    0.019553    1.087060
    7         20             0        2.723111   -0.543117   -0.187506
    8         20             0       -0.012310    1.716239   -0.135434
 ---------------------------------------------------------------------

 SCF Done:  E(RB+HF-LYP) =  -1997.84078988     A.U. after   12 cycles

 The electronic state is 1-A.
 Alpha  occ. eigenvalues -- -145.39168-145.38656 -77.14516 -19.19371 -19.17557
 Alpha  occ. eigenvalues --  -19.16519 -19.14097 -15.46252 -15.45771 -12.59451
 Alpha  occ. eigenvalues --  -12.59391 -12.59359 -12.58965 -12.58932 -12.58834
 Alpha  occ. eigenvalues --   -6.60071  -4.76471  -4.76349  -4.75743  -1.83593
 Alpha  occ. eigenvalues --   -1.83058  -1.12233  -1.11528  -1.11123  -1.10568
 Alpha  occ. eigenvalues --   -1.10519  -1.10309  -1.08164  -1.00539  -0.82283
 Alpha  occ. eigenvalues --   -0.80067  -0.59773  -0.45806  -0.43196  -0.41463
 Alpha  occ. eigenvalues --   -0.39695  -0.38863  -0.36419  -0.30146  -0.26609
 Alpha  occ. eigenvalues --   -0.25310  -0.23720  -0.22736  -0.14546
 Alpha virt. eigenvalues --   -0.09638  -0.04390  -0.03912  -0.01369  -0.00696
 Alpha virt. eigenvalues --   -0.00519   0.00923   0.01980   0.02688   0.04572
 Alpha virt. eigenvalues --    0.05128   0.07171   0.09209   0.09602   0.10902

 Mulliken atomic charges:
              1
     1  O   -0.526686
     2  O   -0.368445
     3  P    0.835706
     4  H   -0.084107
     5  O   -0.567856
     6  O   -0.526803
     7  Ca   0.537441
     8  Ca   0.700750
 Sum of Mulliken charges=   0.00000

 Dipole moment (field-independent basis, Debye):
    X=     3.2319    Y=     1.5783    Z=    -0.6171  Tot=     3.6493
 Quadrupole moment (field-independent basis, Debye-Ang):
   XX=   -84.3898   YY=   -64.0253   ZZ=   -76.6504
   XY=    -9.4929   XZ=     3.3013   YZ=     2.7591

 Normal termination of Gaussian 03 at Mon May  4 20:08:27 2015.
