 Gaussian 03, Revision E.01,
 Gaussian 03:  EM64T-G03RevE.01 11-Sep-2007

 -------------------------------------
 # b3lyp/6-31G(d,p) pop=(ReadRadii,MK)
 -------------------------------------

 ----------
 Ca2HPO4_74
 ----------
 Symbolic Z-matrix:
 Charge =  0 Multiplicity = 1

                         Standard orientation:
 ---------------------------------------------------------------------
 Center     Atomic     Atomic              Coordinates (Angstroms)
 Number     Number      Type              X           Y           Z
 ---------------------------------------------------------------------
    1          8             0       -2.323589    0.618001    0.031393
    2          8             0       -1.111759    0.882528   -0.859217
    3         15             0       -0.173943    1.329542    0.479764
    4          8             0        1.361492    1.428498   -0.465612
    5          1             0        1.448654    2.264468   -0.942942
    6          8             0        0.227781   -0.120646    1.041010
    7         20             0       -1.354384   -1.430356   -0.111843
    8         20             0        2.150838   -0.803376   -0.099862
 ---------------------------------------------------------------------

 SCF Done:  E(RB+HF-LYP) =  -1998.01050981     A.U. after   11 cycles

 The electronic state is 1-A.
 Alpha  occ. eigenvalues -- -145.38194-145.37709 -77.16759 -19.17523 -19.17168
 Alpha  occ. eigenvalues --  -19.12349 -19.11558 -15.45326 -15.44826 -12.58522
 Alpha  occ. eigenvalues --  -12.58477 -12.58392 -12.58036 -12.57984 -12.57892
 Alpha  occ. eigenvalues --   -6.61953  -4.78433  -4.78210  -4.77648  -1.82655
 Alpha  occ. eigenvalues --   -1.82229  -1.10819  -1.10244  -1.10134  -1.10059
 Alpha  occ. eigenvalues --   -1.09763  -1.09608  -1.03790  -1.00383  -0.94343
 Alpha  occ. eigenvalues --   -0.79493  -0.57789  -0.50123  -0.42639  -0.42525
 Alpha  occ. eigenvalues --   -0.40136  -0.37578  -0.33872  -0.32462  -0.30741
 Alpha  occ. eigenvalues --   -0.25049  -0.23739  -0.22185  -0.13878
 Alpha virt. eigenvalues --   -0.08715  -0.03705  -0.02945  -0.01016  -0.00705
 Alpha virt. eigenvalues --    0.01006   0.02434   0.04497   0.04972   0.05587
 Alpha virt. eigenvalues --    0.06408   0.09013   0.09372   0.10606   0.12318

 Mulliken atomic charges:
              1
     1  O   -0.501236
     2  O   -0.453382
     3  P    1.035454
     4  O   -0.725086
     5  H    0.333310
     6  O   -0.815374
     7  Ca   0.624726
     8  Ca   0.501588
 Sum of Mulliken charges=   0.00000

 Dipole moment (field-independent basis, Debye):
    X=     2.4195    Y=    -1.1168    Z=    -0.2441  Tot=     2.6760
 Quadrupole moment (field-independent basis, Debye-Ang):
   XX=   -67.8091   YY=   -75.8717   ZZ=   -75.4275
   XY=    16.6241   XZ=    -0.6141   YZ=    -4.1759

 Normal termination of Gaussian 03 at Mon May  4 20:08:51 2015.
