 Gaussian 03, Revision E.01,
 Gaussian 03:  EM64T-G03RevE.01 11-Sep-2007

 -------------------------------------
 # b3lyp/6-31G(d,p) pop=(ReadRadii,MK)
 -------------------------------------

 ----------
 Ca2HPO4_52
 ----------
 Symbolic Z-matrix:
 Charge =  0 Multiplicity = 1

                         Standard orientation:
 ---------------------------------------------------------------------
 Center     Atomic     Atomic              Coordinates (Angstroms)
 Number     Number      Type              X           Y           Z
 ---------------------------------------------------------------------
    1          8             0        1.133780    0.811081    0.052208
    2         15             0        2.681341    0.150234   -0.114062
    3          1             0        3.066861    0.049529    1.279579
    4         20             0        0.283003   -1.395570    0.011594
    5          8             0       -1.434329   -0.316419   -1.206151
    6          8             0       -2.103149   -0.906774   -0.017345
    7          8             0       -1.466169   -0.321569    1.191149
    8         20             0       -0.899404    1.573890    0.002027
 ---------------------------------------------------------------------

 SCF Done:  E(RB+HF-LYP) =  -1997.93228781     A.U. after    9 cycles

 The electronic state is 1-A.
 Alpha  occ. eigenvalues -- -145.37678-145.34956 -77.04010 -19.22320 -19.13428
 Alpha  occ. eigenvalues --  -19.13413 -19.07824 -15.44750 -15.42077 -12.57929
 Alpha  occ. eigenvalues --  -12.57902 -12.57867 -12.55271 -12.55244 -12.55160
 Alpha  occ. eigenvalues --   -6.50544  -4.66982  -4.66536  -4.66364  -1.82210
 Alpha  occ. eigenvalues --   -1.79591  -1.11773  -1.09827  -1.09761  -1.08290
 Alpha  occ. eigenvalues --   -1.07231  -1.07213  -1.04408  -0.89319  -0.88418
 Alpha  occ. eigenvalues --   -0.73615  -0.51981  -0.43704  -0.41219  -0.40812
 Alpha  occ. eigenvalues --   -0.35466  -0.30710  -0.29673  -0.28633  -0.26991
 Alpha  occ. eigenvalues --   -0.25645  -0.20769  -0.20416  -0.13172
 Alpha virt. eigenvalues --   -0.09164  -0.05406  -0.01272  -0.00262   0.00517
 Alpha virt. eigenvalues --    0.00680   0.02857   0.03891   0.04525   0.06481
 Alpha virt. eigenvalues --    0.07846   0.08503   0.09349   0.12755   0.13556

 Mulliken atomic charges:
              1
     1  O   -0.846978
     2  P    0.035258
     3  H   -0.093238
     4  Ca   0.965265
     5  O   -0.539148
     6  O   -0.139671
     7  O   -0.539807
     8  Ca   1.158319
 Sum of Mulliken charges=   0.00000

 Dipole moment (field-independent basis, Debye):
    X=    -4.0125    Y=     2.8134    Z=     0.4669  Tot=     4.9228
 Quadrupole moment (field-independent basis, Debye-Ang):
   XX=   -89.5668   YY=   -44.4560   ZZ=   -71.9784
   XY=   -13.2959   XZ=     1.8293   YZ=    -0.0153

 Normal termination of Gaussian 03 at Mon May  4 20:08:41 2015.
