 Gaussian 03, Revision E.01,
 Gaussian 03:  EM64T-G03RevE.01 11-Sep-2007

 -------------------------------------
 # b3lyp/6-31G(d,p) pop=(ReadRadii,MK)
 -------------------------------------

 ---------
 Ca2PO3_29
 ---------
 Symbolic Z-matrix:
 Charge =  0 Multiplicity = 1

                         Standard orientation:
 ---------------------------------------------------------------------
 Center     Atomic     Atomic              Coordinates (Angstroms)
 Number     Number      Type              X           Y           Z
 ---------------------------------------------------------------------
    1          8             0       -0.044936   -0.099647    1.058930
    2          8             0        1.520540    1.081669   -0.483632
    3          8             0       -1.161180    1.239398   -0.702128
    4         15             0        0.298755    1.395019    0.455944
    5         20             0       -1.906860   -0.856383   -0.049193
    6         20             0        1.618071   -1.178691   -0.177669
    7          1             0       -1.220931    2.004818   -1.287280
 ---------------------------------------------------------------------

 SCF Done:  E(RB+HF-LYP) =  -1922.88779592     A.U. after   11 cycles

 The electronic state is 1-A.
 Alpha  occ. eigenvalues -- -145.37774-145.37773 -77.13311 -19.14505 -19.09568
 Alpha  occ. eigenvalues --  -19.08207 -15.44910 -15.44900 -12.58115 -12.58112
 Alpha  occ. eigenvalues --  -12.58057 -12.58049 -12.57978 -12.57960  -6.58614
 Alpha  occ. eigenvalues --   -4.75095  -4.74876  -4.74337  -1.82292  -1.82259
 Alpha  occ. eigenvalues --   -1.10301  -1.09913  -1.09855  -1.09762  -1.09566
 Alpha  occ. eigenvalues --   -1.09464  -0.98531  -0.93614  -0.89157  -0.53860
 Alpha  occ. eigenvalues --   -0.46503  -0.39574  -0.37391  -0.35937  -0.31450
 Alpha  occ. eigenvalues --   -0.29948  -0.26821  -0.25830  -0.21417  -0.13453
 Alpha virt. eigenvalues --   -0.08897  -0.03681  -0.02560  -0.00887  -0.00100
 Alpha virt. eigenvalues --    0.00823   0.02442   0.04890   0.05313   0.07934
 Alpha virt. eigenvalues --    0.09285   0.10730   0.11239   0.12938   0.13622

 Mulliken atomic charges:
              1
     1  O   -0.838617
     2  O   -0.740066
     3  O   -0.742065
     4  P    0.919659
     5  Ca   0.540014
     6  Ca   0.537333
     7  H    0.323742
 Sum of Mulliken charges=   0.00000

 Dipole moment (field-independent basis, Debye):
    X=    -1.0045    Y=    -1.1842    Z=    -0.4512  Tot=     1.6171
 Quadrupole moment (field-independent basis, Debye-Ang):
   XX=   -55.3038   YY=   -77.5964   ZZ=   -70.4218
   XY=    -9.2594   XZ=     1.4634   YZ=    -3.9988

 Normal termination of Gaussian 03 at Mon May  4 20:09:03 2015.
