 Gaussian 03, Revision E.01,
 Gaussian 03:  EM64T-G03RevE.01 11-Sep-2007

 -------------------------------------
 # b3lyp/6-31G(d,p) pop=(ReadRadii,MK)
 -------------------------------------

 --------
 Ca2PO3_1
 --------
 Symbolic Z-matrix:
 Charge =  0 Multiplicity = 1

                         Standard orientation:
 ---------------------------------------------------------------------
 Center     Atomic     Atomic              Coordinates (Angstroms)
 Number     Number      Type              X           Y           Z
 ---------------------------------------------------------------------
    1          8             0       -1.883701    0.193458   -0.725355
    2          8             0       -0.320489   -0.663000    1.057580
    3          8             0        1.700213    1.188899   -0.369558
    4         15             0       -1.448512   -1.164671   -0.037796
    5         20             0       -0.336725    1.591286    0.189266
    6         20             0        1.640516   -0.917452   -0.093590
    7          1             0       -0.316327   -1.761484   -1.047900
 ---------------------------------------------------------------------

 SCF Done:  E(RB+HF-LYP) =  -1922.86161151     A.U. after    8 cycles

 The electronic state is 1-A.
 Alpha  occ. eigenvalues -- -145.34840-145.32922 -77.09825 -19.07551 -19.06425
 Alpha  occ. eigenvalues --  -18.98990 -15.41933 -15.40069 -12.55145 -12.55084
 Alpha  occ. eigenvalues --  -12.55003 -12.53269 -12.53255 -12.53101  -6.55467
 Alpha  occ. eigenvalues --   -4.71832  -4.71746  -4.71240  -1.79463  -1.77713
 Alpha  occ. eigenvalues --   -1.07483  -1.07166  -1.06564  -1.05636  -1.05435
 Alpha  occ. eigenvalues --   -1.04698  -0.92242  -0.86860  -0.73011  -0.50234
 Alpha  occ. eigenvalues --   -0.37437  -0.35280  -0.32968  -0.26478  -0.25426
 Alpha  occ. eigenvalues --   -0.23762  -0.19003  -0.17590  -0.17150  -0.16517
 Alpha virt. eigenvalues --   -0.07717  -0.05732  -0.00401   0.00975   0.01127
 Alpha virt. eigenvalues --    0.02397   0.03002   0.05153   0.06927   0.08289
 Alpha virt. eigenvalues --    0.09432   0.10968   0.14058   0.15030   0.15865

 Mulliken atomic charges:
              1
     1  O   -0.748079
     2  O   -0.828109
     3  O   -0.894846
     4  P    0.774220
     5  Ca   1.024390
     6  Ca   0.969969
     7  H   -0.297546
 Sum of Mulliken charges=   0.00000

 Dipole moment (field-independent basis, Debye):
    X=     3.7094    Y=     0.7904    Z=     2.4987  Tot=     4.5417
 Quadrupole moment (field-independent basis, Debye-Ang):
   XX=   -64.7948   YY=   -46.9180   ZZ=   -64.2378
   XY=   -25.1323   XZ=    -1.0974   YZ=     6.2924

 Normal termination of Gaussian 03 at Mon May  4 20:08:57 2015.
