 Gaussian 03, Revision E.01,
 Gaussian 03:  EM64T-G03RevE.01 11-Sep-2007

 -------------------------------------
 # b3lyp/6-31G(d,p) pop=(ReadRadii,MK)
 -------------------------------------

 --------
 Ca2PO3_6
 --------
 Symbolic Z-matrix:
 Charge =  0 Multiplicity = 1

                         Standard orientation:
 ---------------------------------------------------------------------
 Center     Atomic     Atomic              Coordinates (Angstroms)
 Number     Number      Type              X           Y           Z
 ---------------------------------------------------------------------
    1          8             0       -2.435140    0.098195   -0.059456
    2          8             0       -0.252355   -1.098391    0.082320
    3          8             0        1.532041    1.441338   -0.042052
    4         15             0       -1.780731   -1.297261   -0.012263
    5         20             0       -0.559301    1.537379    0.027499
    6         20             0        2.175400   -0.631459   -0.009451
    7          1             0        3.632629   -2.188613   -0.023511
 ---------------------------------------------------------------------

 SCF Done:  E(RB+HF-LYP) =  -1922.86255440     A.U. after   10 cycles

 The electronic state is 1-A.
 Alpha  occ. eigenvalues -- -145.37235-145.31135 -77.18367 -19.16554 -19.16256
 Alpha  occ. eigenvalues --  -19.00053 -15.44398 -15.38451 -12.57630 -12.57593
 Alpha  occ. eigenvalues --  -12.57386 -12.51701 -12.51632 -12.51396  -6.64187
 Alpha  occ. eigenvalues --   -4.80619  -4.80366  -4.79977  -1.82009  -1.76211
 Alpha  occ. eigenvalues --   -1.10043  -1.10008  -1.08942  -1.04438  -1.04333
 Alpha  occ. eigenvalues --   -1.03000  -1.02363  -0.96880  -0.74211  -0.55670
 Alpha  occ. eigenvalues --   -0.44656  -0.42169  -0.41624  -0.33699  -0.32455
 Alpha  occ. eigenvalues --   -0.29886  -0.20681  -0.18745  -0.18481  -0.17565
 Alpha virt. eigenvalues --   -0.08599  -0.08359  -0.02241  -0.01934   0.00628
 Alpha virt. eigenvalues --    0.00844   0.02187   0.02337   0.06200   0.06978
 Alpha virt. eigenvalues --    0.07294   0.09242   0.11653   0.13738   0.15527

 Mulliken atomic charges:
              1
     1  O   -0.654735
     2  O   -0.672523
     3  O   -0.910115
     4  P    0.761116
     5  Ca   0.907951
     6  Ca   0.861716
     7  H   -0.293410
 Sum of Mulliken charges=   0.00000

 Dipole moment (field-independent basis, Debye):
    X=    -7.7024    Y=     4.8242    Z=     0.3763  Tot=     9.0963
 Quadrupole moment (field-independent basis, Debye-Ang):
   XX=   -91.9028   YY=   -67.5496   ZZ=   -55.6516
   XY=     2.0666   XZ=    -0.0631   YZ=     0.7781

 Normal termination of Gaussian 03 at Mon May  4 20:09:08 2015.
