 Gaussian 03, Revision E.01,
 Gaussian 03:  EM64T-G03RevE.01 11-Sep-2007

 -------------------------------------
 # b3lyp/6-31G(d,p) pop=(ReadRadii,MK)
 -------------------------------------

 ---------
 Ca2PO3_19
 ---------
 Symbolic Z-matrix:
 Charge =  0 Multiplicity = 1

                         Standard orientation:
 ---------------------------------------------------------------------
 Center     Atomic     Atomic              Coordinates (Angstroms)
 Number     Number      Type              X           Y           Z
 ---------------------------------------------------------------------
    1          8             0       -0.001693   -0.136789    1.073540
    2          8             0       -1.327072    1.235890   -0.545428
    3          8             0        1.323638    1.237030   -0.544214
    4         15             0       -0.002218    1.241240    0.246556
    5         20             0       -1.844922   -0.992578   -0.118263
    6         20             0        1.848788   -0.988652   -0.118059
    7          1             0       -0.003049    2.316940    1.156920
 ---------------------------------------------------------------------

 SCF Done:  E(RB+HF-LYP) =  -1922.91635863     A.U. after    7 cycles

 The electronic state is 1-A.
 Alpha  occ. eigenvalues -- -145.38837-145.38742 -77.17864 -19.11220 -19.09849
 Alpha  occ. eigenvalues --  -19.09778 -15.45936 -15.45846 -12.59145 -12.59085
 Alpha  occ. eigenvalues --  -12.59054 -12.59011 -12.58994 -12.58919  -6.62852
 Alpha  occ. eigenvalues --   -4.79249  -4.79114  -4.79066  -1.83219  -1.83132
 Alpha  occ. eigenvalues --   -1.11229  -1.10807  -1.10740  -1.10550  -1.10444
 Alpha  occ. eigenvalues --   -1.10422  -0.99494  -0.92015  -0.91569  -0.54559
 Alpha  occ. eigenvalues --   -0.43569  -0.40737  -0.39941  -0.33946  -0.31668
 Alpha  occ. eigenvalues --   -0.29543  -0.28309  -0.28139  -0.26023  -0.14116
 Alpha virt. eigenvalues --   -0.09467  -0.04072  -0.02367  -0.01176  -0.00048
 Alpha virt. eigenvalues --    0.00288   0.02740   0.05304   0.07827   0.08824
 Alpha virt. eigenvalues --    0.10582   0.11277   0.12002   0.13205   0.14155

 Mulliken atomic charges:
              1
     1  O   -0.794386
     2  O   -0.686895
     3  O   -0.685892
     4  P    1.134104
     5  Ca   0.560251
     6  Ca   0.574377
     7  H   -0.101559
 Sum of Mulliken charges=   0.00000

 Dipole moment (field-independent basis, Debye):
    X=     0.1935    Y=    -2.5275    Z=     1.6899  Tot=     3.0465
 Quadrupole moment (field-independent basis, Debye-Ang):
   XX=   -52.7938   YY=   -78.9543   ZZ=   -71.1925
   XY=    -0.2568   XZ=    -0.0484   YZ=     2.7417

 Normal termination of Gaussian 03 at Mon May  4 20:08:56 2015.
