 Gaussian 03, Revision E.01,
 Gaussian 03:  EM64T-G03RevE.01 11-Sep-2007

 -------------------------------------
 # b3lyp/6-31G(d,p) pop=(ReadRadii,MK)
 -------------------------------------

 ---------
 Ca2PO3_22
 ---------
 Symbolic Z-matrix:
 Charge =  0 Multiplicity = 1

                         Standard orientation:
 ---------------------------------------------------------------------
 Center     Atomic     Atomic              Coordinates (Angstroms)
 Number     Number      Type              X           Y           Z
 ---------------------------------------------------------------------
    1          8             0       -2.365569   -0.500697    0.613891
    2          8             0       -1.952119    0.432955   -0.514437
    3          8             0        0.533135    0.595392    0.141475
    4         15             0       -0.780654    1.570571   -0.097872
    5         20             0       -0.524632   -1.473759   -0.124066
    6         20             0        2.684501   -0.003498    0.038265
    7          1             0       -1.211148    1.765381    1.256670
 ---------------------------------------------------------------------

 SCF Done:  E(RB+HF-LYP) =  -1922.73943310     A.U. after   11 cycles

 The electronic state is 1-A.
 Alpha  occ. eigenvalues -- -145.39006-145.37700 -77.12149 -19.16963 -19.11705
 Alpha  occ. eigenvalues --  -19.10140 -15.46154 -15.44851 -12.59327 -12.59325
 Alpha  occ. eigenvalues --  -12.59206 -12.58068 -12.57996 -12.57913  -6.58133
 Alpha  occ. eigenvalues --   -4.74562  -4.74375  -4.73825  -1.83463  -1.82362
 Alpha  occ. eigenvalues --   -1.11072  -1.10945  -1.10784  -1.10452  -1.10053
 Alpha  occ. eigenvalues --   -1.09719  -1.00918  -0.93268  -0.78983  -0.56183
 Alpha  occ. eigenvalues --   -0.42429  -0.41746  -0.38483  -0.34195  -0.32480
 Alpha  occ. eigenvalues --   -0.30899  -0.22801  -0.21169  -0.20372  -0.15697
 Alpha virt. eigenvalues --   -0.09156  -0.04502  -0.03824  -0.01678  -0.01479
 Alpha virt. eigenvalues --    0.01535   0.02404   0.03123   0.04128   0.06733
 Alpha virt. eigenvalues --    0.08375   0.09070   0.10121   0.11307   0.12495

 Mulliken atomic charges:
              1
     1  O   -0.488829
     2  O   -0.452488
     3  O   -0.843513
     4  P    0.722701
     5  Ca   0.749764
     6  Ca   0.384518
     7  H   -0.072153
 Sum of Mulliken charges=   0.00000

 Dipole moment (field-independent basis, Debye):
    X=     4.5342    Y=    -2.3766    Z=    -0.5469  Tot=     5.1484
 Quadrupole moment (field-independent basis, Debye-Ang):
   XX=   -78.1591   YY=   -61.9184   ZZ=   -67.9540
   XY=    10.7902   XZ=     3.2670   YZ=     2.8111

 Normal termination of Gaussian 03 at Mon May  4 20:09:02 2015.
