 Gaussian 03, Revision E.01,
 Gaussian 03:  EM64T-G03RevE.01 11-Sep-2007

 -------------------------------------
 # b3lyp/6-31G(d,p) pop=(ReadRadii,MK)
 -------------------------------------

 ---------
 Ca2PO3_17
 ---------
 Symbolic Z-matrix:
 Charge =  0 Multiplicity = 1

                         Standard orientation:
 ---------------------------------------------------------------------
 Center     Atomic     Atomic              Coordinates (Angstroms)
 Number     Number      Type              X           Y           Z
 ---------------------------------------------------------------------
    1          8             0       -0.768461   -0.358990   -1.221480
    2          8             0        2.091798    0.535744   -0.003813
    3          8             0       -0.767899   -0.354096    1.222220
    4         15             0       -1.845301   -0.336593   -0.000749
    5         20             0        1.036652   -1.323288    0.001570
    6         20             0        0.230480    1.586360    0.000404
    7          1             0       -2.106624    1.206205   -0.003666
 ---------------------------------------------------------------------

 SCF Done:  E(RB+HF-LYP) =  -1922.85533303     A.U. after    8 cycles

 The electronic state is 1-A.
 Alpha  occ. eigenvalues -- -145.34786-145.34270 -77.10300 -19.07445 -19.07346
 Alpha  occ. eigenvalues --  -18.98651 -15.41824 -15.41344 -12.55020 -12.55018
 Alpha  occ. eigenvalues --  -12.54890 -12.54524 -12.54522 -12.54423  -6.56077
 Alpha  occ. eigenvalues --   -4.72427  -4.72355  -4.71854  -1.79290  -1.78849
 Alpha  occ. eigenvalues --   -1.07878  -1.06901  -1.06632  -1.06400  -1.06229
 Alpha  occ. eigenvalues --   -1.05562  -0.92946  -0.86806  -0.72672  -0.51575
 Alpha  occ. eigenvalues --   -0.38459  -0.35111  -0.33768  -0.27210  -0.26496
 Alpha  occ. eigenvalues --   -0.22949  -0.18831  -0.18275  -0.16652  -0.16453
 Alpha virt. eigenvalues --   -0.07442  -0.06308   0.00621   0.00835   0.01348
 Alpha virt. eigenvalues --    0.01767   0.03550   0.04766   0.07044   0.07786
 Alpha virt. eigenvalues --    0.08030   0.09842   0.14160   0.15447   0.15566

 Mulliken atomic charges:
              1
     1  O   -0.802851
     2  O   -0.891714
     3  O   -0.802139
     4  P    0.750488
     5  Ca   1.000434
     6  Ca   0.999964
     7  H   -0.254183
 Sum of Mulliken charges=   0.00000

 Dipole moment (field-independent basis, Debye):
    X=     1.2690    Y=    -0.2453    Z=     0.0282  Tot=     1.2929
 Quadrupole moment (field-independent basis, Debye-Ang):
   XX=   -81.0437   YY=   -30.5058   ZZ=   -67.2655
   XY=   -13.7126   XZ=     0.0494   YZ=    -0.0158

 Normal termination of Gaussian 03 at Mon May  4 20:08:53 2015.
