 Gaussian 03, Revision E.01,
 Gaussian 03:  EM64T-G03RevE.01 11-Sep-2007

 -------------------------------------
 # b3lyp/6-31G(d,p) pop=(ReadRadii,MK)
 -------------------------------------

 ---------
 Ca2PO3_12
 ---------
 Symbolic Z-matrix:
 Charge =  0 Multiplicity = 1

                         Standard orientation:
 ---------------------------------------------------------------------
 Center     Atomic     Atomic              Coordinates (Angstroms)
 Number     Number      Type              X           Y           Z
 ---------------------------------------------------------------------
    1          8             0       -0.920078    0.559358    0.363458
    2          8             0        1.073261    1.875220   -0.312617
    3          8             0        2.983409   -1.627071    0.263725
    4         15             0       -0.380760    2.015011    0.137667
    5         20             0        1.302509   -0.510948   -0.194494
    6         20             0       -2.458161   -1.215158   -0.060574
    7          1             0        3.731699   -2.163111    0.519846
 ---------------------------------------------------------------------

 SCF Done:  E(RB+HF-LYP) =  -1922.88281466     A.U. after   11 cycles

 The electronic state is 1-A.
 Alpha  occ. eigenvalues -- -145.38282-145.36266 -77.18955 -19.17434 -19.16528
 Alpha  occ. eigenvalues --  -19.04500 -15.45448 -15.43421 -12.58599 -12.58596
 Alpha  occ. eigenvalues --  -12.58522 -12.56665 -12.56602 -12.56436  -6.64800
 Alpha  occ. eigenvalues --   -4.81233  -4.80987  -4.80572  -1.82739  -1.80948
 Alpha  occ. eigenvalues --   -1.10233  -1.10112  -1.10040  -1.08995  -1.08799
 Alpha  occ. eigenvalues --   -1.08532  -1.03072  -0.97479  -0.85669  -0.56429
 Alpha  occ. eigenvalues --   -0.45159  -0.43027  -0.42191  -0.38079  -0.34362
 Alpha  occ. eigenvalues --   -0.33197  -0.30560  -0.22289  -0.22247  -0.14742
 Alpha virt. eigenvalues --   -0.09290  -0.06559  -0.04144  -0.02742  -0.00900
 Alpha virt. eigenvalues --    0.00718   0.01974   0.03468   0.04799   0.05888
 Alpha virt. eigenvalues --    0.07923   0.10508   0.10813   0.11406   0.13286

 Mulliken atomic charges:
              1
     1  O   -0.701365
     2  O   -0.617081
     3  O   -0.823374
     4  P    0.789921
     5  Ca   0.991175
     6  Ca   0.087223
     7  H    0.273501
 Sum of Mulliken charges=   0.00000

 Dipole moment (field-independent basis, Debye):
    X=    -1.8327    Y=     1.7892    Z=    -0.0074  Tot=     2.5613
 Quadrupole moment (field-independent basis, Debye-Ang):
   XX=   -75.3900   YY=   -77.2594   ZZ=   -65.9694
   XY=    -2.9674   XZ=    -2.3299   YZ=    -0.1377

 Normal termination of Gaussian 03 at Mon May  4 20:08:52 2015.
