 Gaussian 03, Revision E.01,
 Gaussian 03:  EM64T-G03RevE.01 11-Sep-2007

 -------------------------------------
 # b3lyp/6-31G(d,p) pop=(ReadRadii,MK)
 -------------------------------------

 ---------
 Ca2PO3_20
 ---------
 Symbolic Z-matrix:
 Charge =  0 Multiplicity = 1

                         Standard orientation:
 ---------------------------------------------------------------------
 Center     Atomic     Atomic              Coordinates (Angstroms)
 Number     Number      Type              X           Y           Z
 ---------------------------------------------------------------------
    1          8             0        1.305272    1.173487   -0.600220
    2          8             0       -1.306028    1.173222   -0.600016
    3          8             0       -0.000074   -0.117586    1.178640
    4         15             0       -0.000263    1.443509    0.317639
    5         20             0        1.658008   -0.928739   -0.092696
    6         20             0       -1.657502   -0.929356   -0.092750
    7          1             0        0.000475   -2.323741   -0.882906
 ---------------------------------------------------------------------

 SCF Done:  E(RB+HF-LYP) =  -1922.88578923     A.U. after    9 cycles

 The electronic state is 1-A.
 Alpha  occ. eigenvalues -- -145.36204-145.36198 -77.08140 -19.05306 -19.03842
 Alpha  occ. eigenvalues --  -19.03788 -15.43302 -15.43296 -12.56509 -12.56503
 Alpha  occ. eigenvalues --  -12.56447 -12.56442 -12.56381 -12.56375  -6.53291
 Alpha  occ. eigenvalues --   -4.69705  -4.69581  -4.69131  -1.80827  -1.80762
 Alpha  occ. eigenvalues --   -1.09147  -1.08422  -1.08409  -1.08096  -1.08050
 Alpha  occ. eigenvalues --   -1.07841  -0.89929  -0.83793  -0.83061  -0.45398
 Alpha  occ. eigenvalues --   -0.33648  -0.32936  -0.31356  -0.27094  -0.26378
 Alpha  occ. eigenvalues --   -0.23959  -0.21592  -0.21489  -0.20097  -0.14296
 Alpha virt. eigenvalues --   -0.08018  -0.06878  -0.00871   0.00165   0.00895
 Alpha virt. eigenvalues --    0.01048   0.04220   0.05166   0.06576   0.09070
 Alpha virt. eigenvalues --    0.12441   0.12798   0.14002   0.14301   0.15128

 Mulliken atomic charges:
              1
     1  O   -0.770024
     2  O   -0.769077
     3  O   -0.866799
     4  P    0.922873
     5  Ca   0.957059
     6  Ca   0.956734
     7  H   -0.430766
 Sum of Mulliken charges=   0.00000

 Dipole moment (field-independent basis, Debye):
    X=     0.0012    Y=   -10.1048    Z=     0.8016  Tot=    10.1366
 Quadrupole moment (field-independent basis, Debye-Ang):
   XX=   -30.8966   YY=   -70.4623   ZZ=   -68.2789
   XY=     0.0011   XZ=     0.0027   YZ=    -0.6032

 Normal termination of Gaussian 03 at Mon May  4 20:08:59 2015.
