 Gaussian 03, Revision E.01,
 Gaussian 03:  EM64T-G03RevE.01 11-Sep-2007

 -------------------------------------
 # b3lyp/6-31G(d,p) pop=(ReadRadii,MK)
 -------------------------------------

 ---------
 Ca2PO3_34
 ---------
 Symbolic Z-matrix:
 Charge =  0 Multiplicity = 1

                         Standard orientation:
 ---------------------------------------------------------------------
 Center     Atomic     Atomic              Coordinates (Angstroms)
 Number     Number      Type              X           Y           Z
 ---------------------------------------------------------------------
    1          8             0       -2.432080   -1.245308   -0.000969
    2          8             0       -2.419999    1.249461   -0.000770
    3          8             0        1.725190   -0.008075    0.003517
    4         15             0       -3.335180    0.006343   -0.005042
    5         20             0       -0.390166   -0.007121    0.006502
    6         20             0        3.844000    0.003205   -0.002961
    7          1             0        5.966110    0.014555   -0.009414
 ---------------------------------------------------------------------

 SCF Done:  E(RB+HF-LYP) =  -1922.86983671     A.U. after    8 cycles

 The electronic state is 1-A.
 Alpha  occ. eigenvalues -- -145.33861-145.33849 -77.15560 -19.13705 -19.13550
 Alpha  occ. eigenvalues --  -19.00860 -15.41268 -15.41145 -12.54496 -12.54496
 Alpha  occ. eigenvalues --  -12.54398 -12.54331 -12.54158 -12.54095  -6.61489
 Alpha  occ. eigenvalues --   -4.77921  -4.77654  -4.77285  -1.79138  -1.78951
 Alpha  occ. eigenvalues --   -1.07254  -1.07250  -1.07176  -1.06801  -1.06691
 Alpha  occ. eigenvalues --   -1.05533  -0.99705  -0.94159  -0.75222  -0.52449
 Alpha  occ. eigenvalues --   -0.41116  -0.39532  -0.39054  -0.30720  -0.29567
 Alpha  occ. eigenvalues --   -0.27323  -0.23067  -0.19943  -0.19649  -0.19597
 Alpha virt. eigenvalues --   -0.06142  -0.05582  -0.02996  -0.01232  -0.01102
 Alpha virt. eigenvalues --    0.00050   0.01243   0.03872   0.05482   0.08263
 Alpha virt. eigenvalues --    0.08492   0.11777   0.13174   0.13377   0.13946

 Mulliken atomic charges:
              1
     1  O   -0.647156
     2  O   -0.643950
     3  O   -0.955723
     4  P    0.739174
     5  Ca   0.984613
     6  Ca   0.797570
     7  H   -0.274527
 Sum of Mulliken charges=   0.00000

 Dipole moment (field-independent basis, Debye):
    X=    -1.3494    Y=    -0.0094    Z=     0.0305  Tot=     1.3498
 Quadrupole moment (field-independent basis, Debye-Ang):
   XX=  -106.4046   YY=   -65.6045   ZZ=   -55.0059
   XY=    -0.1791   XZ=     0.0526   YZ=    -0.0007

 Normal termination of Gaussian 03 at Mon May  4 20:09:03 2015.
