 Gaussian 03, Revision E.01,
 Gaussian 03:  EM64T-G03RevE.01 11-Sep-2007

 -------------------------------------
 # b3lyp/6-31G(d,p) pop=(ReadRadii,MK)
 -------------------------------------

 --------
 Ca2PO3_8
 --------
 Symbolic Z-matrix:
 Charge =  0 Multiplicity = 1

                         Standard orientation:
 ---------------------------------------------------------------------
 Center     Atomic     Atomic              Coordinates (Angstroms)
 Number     Number      Type              X           Y           Z
 ---------------------------------------------------------------------
    1          8             0        1.940271   -0.989325   -0.000882
    2          8             0       -0.154461   -0.155353    1.210021
    3          8             0       -0.154301   -0.151580   -1.209279
    4         15             0        0.372694   -1.207899   -0.001070
    5         20             0        1.414509    1.194612    0.000681
    6         20             0       -2.146890    0.170343    0.000466
    7          1             0       -3.994851    1.189439   -0.005731
 ---------------------------------------------------------------------

 SCF Done:  E(RB+HF-LYP) =  -1922.87975336     A.U. after    8 cycles

 The electronic state is 1-A.
 Alpha  occ. eigenvalues -- -145.40618-145.35199 -77.12552 -19.08941 -19.08931
 Alpha  occ. eigenvalues --  -19.08289 -15.47624 -15.42466 -12.60782 -12.60782
 Alpha  occ. eigenvalues --  -12.60764 -12.55716 -12.55636 -12.55438  -6.57956
 Alpha  occ. eigenvalues --   -4.74289  -4.74255  -4.73877  -1.84911  -1.80119
 Alpha  occ. eigenvalues --   -1.12969  -1.12241  -1.12197  -1.08229  -1.07738
 Alpha  occ. eigenvalues --   -1.07163  -0.94989  -0.88593  -0.87034  -0.49592
 Alpha  occ. eigenvalues --   -0.37167  -0.36903  -0.36588  -0.30972  -0.29516
 Alpha  occ. eigenvalues --   -0.26400  -0.24809  -0.22835  -0.20950  -0.19937
 Alpha virt. eigenvalues --   -0.10855  -0.03557  -0.02217  -0.01994   0.00528
 Alpha virt. eigenvalues --    0.01120   0.02680   0.05144   0.06515   0.08345
 Alpha virt. eigenvalues --    0.09366   0.09538   0.11221   0.11394   0.13399

 Mulliken atomic charges:
              1
     1  O   -0.712625
     2  O   -0.807013
     3  O   -0.807442
     4  P    0.965040
     5  Ca   0.871125
     6  Ca   0.788388
     7  H   -0.297473
 Sum of Mulliken charges=   0.00000

 Dipole moment (field-independent basis, Debye):
    X=     4.3772    Y=     6.1326    Z=     0.0231  Tot=     7.5345
 Quadrupole moment (field-independent basis, Debye-Ang):
   XX=   -77.3149   YY=   -55.9524   ZZ=   -68.8370
   XY=    27.2400   XZ=    -0.0626   YZ=     0.0344

 Normal termination of Gaussian 03 at Mon May  4 20:09:09 2015.
