 Gaussian 03, Revision E.01,
 Gaussian 03:  EM64T-G03RevE.01 11-Sep-2007

 -------------------------------------
 # b3lyp/6-31G(d,p) pop=(ReadRadii,MK)
 -------------------------------------

 --------
 Ca2PO3_9
 --------
 Symbolic Z-matrix:
 Charge =  0 Multiplicity = 1

                         Standard orientation:
 ---------------------------------------------------------------------
 Center     Atomic     Atomic              Coordinates (Angstroms)
 Number     Number      Type              X           Y           Z
 ---------------------------------------------------------------------
    1          8             0       -1.580709    1.177122   -0.320028
    2          8             0        1.061981    1.353569   -0.553842
    3          8             0       -0.026792   -0.511212    0.773264
    4         15             0       -0.162190    1.163540    0.410941
    5         20             0       -2.000882   -0.982417   -0.167656
    6         20             0        2.155159   -0.597802   -0.082260
    7          1             0        3.711487   -2.004554   -0.360946
 ---------------------------------------------------------------------

 SCF Done:  E(RB+HF-LYP) =  -1922.87802279     A.U. after   10 cycles

 The electronic state is 1-A.
 Alpha  occ. eigenvalues -- -145.40996-145.34156 -77.13343 -19.10736 -19.09485
 Alpha  occ. eigenvalues --  -19.08252 -15.48086 -15.41470 -12.61296 -12.61205
 Alpha  occ. eigenvalues --  -12.61186 -12.54716 -12.54639 -12.54432  -6.58538
 Alpha  occ. eigenvalues --   -4.74929  -4.74808  -4.74504  -1.85448  -1.79198
 Alpha  occ. eigenvalues --   -1.13162  -1.13096  -1.12692  -1.07320  -1.06907
 Alpha  occ. eigenvalues --   -1.06381  -0.95732  -0.89591  -0.88723  -0.49691
 Alpha  occ. eigenvalues --   -0.38966  -0.38040  -0.36301  -0.32517  -0.29267
 Alpha  occ. eigenvalues --   -0.26883  -0.26023  -0.25589  -0.20316  -0.17447
 Alpha virt. eigenvalues --   -0.11709  -0.04481  -0.03077  -0.01157  -0.00176
 Alpha virt. eigenvalues --    0.00898   0.01378   0.04962   0.06169   0.09805
 Alpha virt. eigenvalues --    0.10100   0.10365   0.11124   0.13227   0.13944

 Mulliken atomic charges:
              1
     1  O   -0.694228
     2  O   -0.698517
     3  O   -0.836819
     4  P    0.918275
     5  Ca   0.857696
     6  Ca   0.755612
     7  H   -0.302019
 Sum of Mulliken charges=   0.00000

 Dipole moment (field-independent basis, Debye):
    X=    -7.2284    Y=    -4.6974    Z=     0.5921  Tot=     8.6409
 Quadrupole moment (field-independent basis, Debye-Ang):
   XX=   -64.0316   YY=   -74.8968   ZZ=   -64.1435
   XY=    25.0867   XZ=     3.8300   YZ=     2.6437

 Normal termination of Gaussian 03 at Mon May  4 20:09:12 2015.
