 Gaussian 03, Revision E.01,
 Gaussian 03:  EM64T-G03RevE.01 11-Sep-2007

 -------------------------------------
 # b3lyp/6-31G(d,p) pop=(ReadRadii,MK)
 -------------------------------------

 ---------
 Ca2PO3_18
 ---------
 Symbolic Z-matrix:
 Charge =  0 Multiplicity = 1

                         Standard orientation:
 ---------------------------------------------------------------------
 Center     Atomic     Atomic              Coordinates (Angstroms)
 Number     Number      Type              X           Y           Z
 ---------------------------------------------------------------------
    1          8             0       -2.700262    0.226009   -0.620544
    2          8             0       -2.499112    0.009330    0.903766
    3          8             0       -0.532436   -1.300461   -0.353448
    4         15             0       -1.136132    0.093668   -0.055281
    5         20             0        1.679959   -1.533880    0.038597
    6         20             0        1.393267    1.881430   -0.042618
    7          1             0        1.431928    0.164953    1.471430
 ---------------------------------------------------------------------

 SCF Done:  E(RB+HF-LYP) =  -1922.65708451     A.U. after   12 cycles

 The electronic state is 1-A.
 Alpha  occ. eigenvalues -- -145.40728-145.40520 -77.16481 -19.18386 -19.18313
 Alpha  occ. eigenvalues --  -19.12426 -15.47826 -15.47624 -12.61027 -12.60979
 Alpha  occ. eigenvalues --  -12.60901 -12.60845 -12.60749 -12.60715  -6.62025
 Alpha  occ. eigenvalues --   -4.78391  -4.78350  -4.77847  -1.85028  -1.84908
 Alpha  occ. eigenvalues --   -1.12767  -1.12470  -1.12357  -1.12250  -1.12161
 Alpha  occ. eigenvalues --   -1.11937  -1.09604  -0.96010  -0.83489  -0.55508
 Alpha  occ. eigenvalues --   -0.43486  -0.42570  -0.40206  -0.37643  -0.33741
 Alpha  occ. eigenvalues --   -0.30004  -0.27688  -0.25028  -0.24329  -0.14204
 Alpha virt. eigenvalues --   -0.10824  -0.05444  -0.03471  -0.02504  -0.01740
 Alpha virt. eigenvalues --   -0.01203   0.00711   0.01235   0.02567   0.02682
 Alpha virt. eigenvalues --    0.06162   0.07801   0.08743   0.11282   0.11692

 Mulliken atomic charges:
              1
     1  O   -0.346001
     2  O   -0.344609
     3  O   -0.693518
     4  P    0.793795
     5  Ca   0.664379
     6  Ca   0.349034
     7  H   -0.423081
 Sum of Mulliken charges=   0.00000

 Dipole moment (field-independent basis, Debye):
    X=     5.5023    Y=    -0.7218    Z=     1.4946  Tot=     5.7472
 Quadrupole moment (field-independent basis, Debye-Ang):
   XX=   -84.6988   YY=   -53.3073   ZZ=   -74.1877
   XY=    -7.7558   XZ=     4.7041   YZ=     1.2562

 Normal termination of Gaussian 03 at Mon May  4 20:08:57 2015.
