 Gaussian 03, Revision E.01,
 Gaussian 03:  EM64T-G03RevE.01 11-Sep-2007

 -------------------------------------
 # b3lyp/6-31G(d,p) pop=(ReadRadii,MK)
 -------------------------------------

 ---------
 Ca2PO3_28
 ---------
 Symbolic Z-matrix:
 Charge =  0 Multiplicity = 1

                         Standard orientation:
 ---------------------------------------------------------------------
 Center     Atomic     Atomic              Coordinates (Angstroms)
 Number     Number      Type              X           Y           Z
 ---------------------------------------------------------------------
    1          8             0        0.106908   -0.362958    1.213829
    2          8             0        0.184805   -0.577085   -1.183051
    3          8             0       -2.114521   -0.517156    0.021475
    4         15             0       -0.485735   -1.344301    0.070376
    5         20             0        2.129399    0.156360   -0.012721
    6         20             0       -0.900742    1.484869   -0.032400
    7          1             0       -2.704641   -1.002472   -0.571270
 ---------------------------------------------------------------------

 SCF Done:  E(RB+HF-LYP) =  -1922.87971016     A.U. after    9 cycles

 The electronic state is 1-A.
 Alpha  occ. eigenvalues -- -145.38631-145.38176 -77.14085 -19.15872 -19.09596
 Alpha  occ. eigenvalues --  -19.09344 -15.45717 -15.45272 -12.58902 -12.58888
 Alpha  occ. eigenvalues --  -12.58800 -12.58476 -12.58421 -12.58346  -6.59509
 Alpha  occ. eigenvalues --   -4.75990  -4.75750  -4.75242  -1.83037  -1.82547
 Alpha  occ. eigenvalues --   -1.11015  -1.10594  -1.10455  -1.10089  -1.09870
 Alpha  occ. eigenvalues --   -1.09755  -1.00208  -0.94635  -0.89120  -0.55159
 Alpha  occ. eigenvalues --   -0.47345  -0.39932  -0.38384  -0.35900  -0.33210
 Alpha  occ. eigenvalues --   -0.31046  -0.27587  -0.24654  -0.22827  -0.13454
 Alpha virt. eigenvalues --   -0.08699  -0.03623  -0.02115  -0.01182  -0.00420
 Alpha virt. eigenvalues --    0.01336   0.02804   0.04703   0.05140   0.07637
 Alpha virt. eigenvalues --    0.08427   0.09127   0.11419   0.12593   0.13295

 Mulliken atomic charges:
              1
     1  O   -0.794831
     2  O   -0.781349
     3  O   -0.717513
     4  P    0.946302
     5  Ca   0.545735
     6  Ca   0.474735
     7  H    0.326920
 Sum of Mulliken charges=   0.00000

 Dipole moment (field-independent basis, Debye):
    X=    -1.2909    Y=     0.7999    Z=    -0.7900  Tot=     1.7119
 Quadrupole moment (field-independent basis, Debye-Ang):
   XX=   -57.1491   YY=   -72.7476   ZZ=   -74.9280
   XY=    -8.8070   XZ=     3.5707   YZ=     1.0731

 Normal termination of Gaussian 03 at Mon May  4 20:09:03 2015.
