 Gaussian 03, Revision E.01,
 Gaussian 03:  EM64T-G03RevE.01 11-Sep-2007

 -------------------------------------
 # b3lyp/6-31G(d,p) pop=(ReadRadii,MK)
 -------------------------------------

 --------
 Ca2PO3_2
 --------
 Symbolic Z-matrix:
 Charge =  0 Multiplicity = 1

                         Standard orientation:
 ---------------------------------------------------------------------
 Center     Atomic     Atomic              Coordinates (Angstroms)
 Number     Number      Type              X           Y           Z
 ---------------------------------------------------------------------
    1          8             0        1.002890    0.000904   -0.984765
    2          8             0       -1.957130   -0.000606   -0.431363
    3          8             0       -1.475900   -0.000535    1.054290
    4         15             0        2.004150   -0.000224    0.424722
    5         20             0       -0.349065    1.574621   -0.084104
    6         20             0       -0.348649   -1.574339   -0.084466
    7          1             0        3.333130   -0.000371   -0.104717
 ---------------------------------------------------------------------

 SCF Done:  E(RB+HF-LYP) =  -1922.75363254     A.U. after    8 cycles

 The electronic state is 1-A.
 Alpha  occ. eigenvalues -- -145.35012-145.34998 -77.02965 -19.07917 -19.07826
 Alpha  occ. eigenvalues --  -19.05470 -15.42067 -15.42053 -12.55273 -12.55260
 Alpha  occ. eigenvalues --  -12.55217 -12.55203 -12.55171 -12.55157  -6.49665
 Alpha  occ. eigenvalues --   -4.66135  -4.65694  -4.65447  -1.79592  -1.79471
 Alpha  occ. eigenvalues --   -1.08547  -1.07363  -1.07099  -1.07018  -1.06668
 Alpha  occ. eigenvalues --   -1.06427  -0.90800  -0.86010  -0.71617  -0.51101
 Alpha  occ. eigenvalues --   -0.33673  -0.31671  -0.30327  -0.29998  -0.28534
 Alpha  occ. eigenvalues --   -0.26776  -0.20217  -0.18333  -0.16834  -0.12781
 Alpha virt. eigenvalues --   -0.07697  -0.06387  -0.00739   0.00808   0.02080
 Alpha virt. eigenvalues --    0.02108   0.03802   0.04650   0.06754   0.08021
 Alpha virt. eigenvalues --    0.09377   0.09972   0.11525   0.14234   0.15534

 Mulliken atomic charges:
              1
     1  O   -0.847547
     2  O   -0.587965
     3  O   -0.584880
     4  P   -0.097146
     5  Ca   1.089474
     6  Ca   1.089312
     7  H   -0.061250
 Sum of Mulliken charges=   0.00000

 Dipole moment (field-independent basis, Debye):
    X=    -2.1954    Y=     0.0060    Z=    -2.2706  Tot=     3.1584
 Quadrupole moment (field-independent basis, Debye-Ang):
   XX=   -83.3647   YY=   -27.5425   ZZ=   -66.8771
   XY=    -0.0124   XZ=     2.2254   YZ=     0.0068

 Normal termination of Gaussian 03 at Mon May  4 20:09:02 2015.
