 Gaussian 03, Revision E.01,
 Gaussian 03:  EM64T-G03RevE.01 11-Sep-2007

 -------------------------------------
 # b3lyp/6-31G(d,p) pop=(ReadRadii,MK)
 -------------------------------------

 ---------
 Ca2PO3_16
 ---------
 Symbolic Z-matrix:
 Charge =  0 Multiplicity = 1

                         Standard orientation:
 ---------------------------------------------------------------------
 Center     Atomic     Atomic              Coordinates (Angstroms)
 Number     Number      Type              X           Y           Z
 ---------------------------------------------------------------------
    1          8             0       -1.699631    0.739391    0.766788
    2          8             0        0.832628   -0.869970    0.070060
    3          8             0       -1.669241    0.728735   -0.803923
    4         15             0        2.459191   -0.461293   -0.120928
    5         20             0        0.326587    1.446879    0.012573
    6         20             0       -1.300448   -1.319703    0.001650
    7          1             0        2.879311   -0.409373    1.266080
 ---------------------------------------------------------------------

 SCF Done:  E(RB+HF-LYP) =  -1922.75863669     A.U. after    8 cycles

 The electronic state is 1-A.
 Alpha  occ. eigenvalues -- -145.36234-145.33513 -77.03917 -19.08937 -19.08929
 Alpha  occ. eigenvalues --  -19.07596 -15.43323 -15.40690 -12.56514 -12.56481
 Alpha  occ. eigenvalues --  -12.56417 -12.53893 -12.53864 -12.53736  -6.50445
 Alpha  occ. eigenvalues --   -4.66878  -4.66439  -4.66269  -1.80847  -1.78308
 Alpha  occ. eigenvalues --   -1.09165  -1.08475  -1.08356  -1.06068  -1.06056
 Alpha  occ. eigenvalues --   -1.05631  -0.91391  -0.88193  -0.72857  -0.51781
 Alpha  occ. eigenvalues --   -0.35279  -0.32554  -0.31339  -0.30625  -0.29437
 Alpha  occ. eigenvalues --   -0.28560  -0.20473  -0.19583  -0.17839  -0.12946
 Alpha virt. eigenvalues --   -0.08966  -0.05319  -0.01863   0.00237   0.00249
 Alpha virt. eigenvalues --    0.02226   0.03020   0.03872   0.06616   0.07943
 Alpha virt. eigenvalues --    0.08262   0.09402   0.13009   0.13843   0.14607

 Mulliken atomic charges:
              1
     1  O   -0.586918
     2  O   -0.845169
     3  O   -0.587080
     4  P    0.031897
     5  Ca   0.941593
     6  Ca   1.140556
     7  H   -0.094879
 Sum of Mulliken charges=   0.00000

 Dipole moment (field-independent basis, Debye):
    X=    -4.0353    Y=    -2.2708    Z=     0.5050  Tot=     4.6578
 Quadrupole moment (field-independent basis, Debye-Ang):
   XX=   -79.2489   YY=   -44.5555   ZZ=   -62.4052
   XY=    20.1037   XZ=     1.6208   YZ=    -0.0578

 Normal termination of Gaussian 03 at Mon May  4 20:08:52 2015.
