 Gaussian 03, Revision E.01,
 Gaussian 03:  EM64T-G03RevE.01 11-Sep-2007

 -------------------------------------
 # b3lyp/6-31G(d,p) pop=(ReadRadii,MK)
 -------------------------------------

 ---------
 Ca2PO3_23
 ---------
 Symbolic Z-matrix:
 Charge =  0 Multiplicity = 1

                         Standard orientation:
 ---------------------------------------------------------------------
 Center     Atomic     Atomic              Coordinates (Angstroms)
 Number     Number      Type              X           Y           Z
 ---------------------------------------------------------------------
    1          8             0       -0.002660   -0.113609    1.180569
    2          8             0       -1.287714    1.180176   -0.607401
    3          8             0        1.322466    1.163035   -0.595978
    4         15             0        0.015906    1.443870    0.317209
    5         20             0        1.644267   -0.944103   -0.093533
    6         20             0       -1.667563   -0.914055   -0.091375
    7          1             0       -0.029410   -2.331709   -0.877532
 ---------------------------------------------------------------------

 SCF Done:  E(RB+HF-LYP) =  -1922.88577701     A.U. after    9 cycles

 The electronic state is 1-A.
 Alpha  occ. eigenvalues -- -145.36210-145.36196 -77.08208 -19.05327 -19.04008
 Alpha  occ. eigenvalues --  -19.03758 -15.43312 -15.43298 -12.56519 -12.56504
 Alpha  occ. eigenvalues --  -12.56457 -12.56443 -12.56389 -12.56376  -6.53349
 Alpha  occ. eigenvalues --   -4.69763  -4.69641  -4.69189  -1.80841  -1.80774
 Alpha  occ. eigenvalues --   -1.09166  -1.08439  -1.08422  -1.08111  -1.08063
 Alpha  occ. eigenvalues --   -1.07854  -0.89974  -0.83825  -0.83109  -0.45446
 Alpha  occ. eigenvalues --   -0.33688  -0.32981  -0.31401  -0.27126  -0.26388
 Alpha  occ. eigenvalues --   -0.24003  -0.21656  -0.21493  -0.20124  -0.14343
 Alpha virt. eigenvalues --   -0.08018  -0.06877  -0.00882   0.00161   0.00899
 Alpha virt. eigenvalues --    0.01048   0.04218   0.05144   0.06569   0.09065
 Alpha virt. eigenvalues --    0.12429   0.12780   0.13994   0.14295   0.15127

 Mulliken atomic charges:
              1
     1  O   -0.866578
     2  O   -0.770048
     3  O   -0.772642
     4  P    0.923046
     5  Ca   0.958120
     6  Ca   0.957839
     7  H   -0.429738
 Sum of Mulliken charges=   0.00000

 Dipole moment (field-independent basis, Debye):
    X=    -0.1560    Y=   -10.1299    Z=     0.8039  Tot=    10.1629
 Quadrupole moment (field-independent basis, Debye-Ang):
   XX=   -30.9062   YY=   -70.5211   ZZ=   -68.2463
   XY=    -0.4580   XZ=    -0.0579   YZ=    -0.5834

 Normal termination of Gaussian 03 at Mon May  4 20:09:02 2015.
