 Gaussian 03, Revision E.01,
 Gaussian 03:  EM64T-G03RevE.01 11-Sep-2007

 -------------------------------------
 # b3lyp/6-31G(d,p) pop=(ReadRadii,MK)
 -------------------------------------

 ---------
 Ca2PO3_10
 ---------
 Symbolic Z-matrix:
 Charge =  0 Multiplicity = 1

                         Standard orientation:
 ---------------------------------------------------------------------
 Center     Atomic     Atomic              Coordinates (Angstroms)
 Number     Number      Type              X           Y           Z
 ---------------------------------------------------------------------
    1          8             0       -1.106639   -0.002095   -0.928007
    2          8             0        1.797831    0.002875   -0.564917
    3          8             0        1.810601    0.001923    0.945460
    4         15             0       -2.007809   -0.002577    0.532657
    5         20             0        0.180879    1.691739   -0.118499
    6         20             0        0.186061   -1.691021   -0.118564
    7          1             0        2.764001    0.002651    1.131100
 ---------------------------------------------------------------------

 SCF Done:  E(RB+HF-LYP) =  -1922.70866634     A.U. after   12 cycles

 The electronic state is 1-A.
 Alpha  occ. eigenvalues -- -145.36577-145.36573 -77.04079 -19.22643 -19.15766
 Alpha  occ. eigenvalues --  -19.07254 -15.43670 -15.43666 -12.56887 -12.56883
 Alpha  occ. eigenvalues --  -12.56801 -12.56797 -12.56766 -12.56762  -6.50596
 Alpha  occ. eigenvalues --   -4.66966  -4.66668  -4.66394  -1.81079  -1.81020
 Alpha  occ. eigenvalues --   -1.10747  -1.08976  -1.08645  -1.08537  -1.08254
 Alpha  occ. eigenvalues --   -1.08086  -1.06155  -0.87746  -0.84349  -0.52408
 Alpha  occ. eigenvalues --   -0.47962  -0.42550  -0.41188  -0.30471  -0.30296
 Alpha  occ. eigenvalues --   -0.28629  -0.27422  -0.26396  -0.13275  -0.12541
 Alpha virt. eigenvalues --   -0.08097  -0.07512  -0.03153  -0.00784  -0.00452
 Alpha virt. eigenvalues --    0.00856   0.02367   0.02714   0.03790   0.05617
 Alpha virt. eigenvalues --    0.08228   0.08419   0.10389   0.13072   0.14238

 Mulliken atomic charges:
              1
     1  O   -0.814379
     2  O   -0.536288
     3  O   -0.409902
     4  P   -0.131665
     5  Ca   0.769589
     6  Ca   0.769683
     7  H    0.352964
 Sum of Mulliken charges=   0.00000

 Dipole moment (field-independent basis, Debye):
    X=     6.3277    Y=     0.0072    Z=    -1.1989  Tot=     6.4402
 Quadrupole moment (field-independent basis, Debye-Ang):
   XX=   -75.5902   YY=   -53.0739   ZZ=   -68.7522
   XY=    -0.0392   XZ=     5.2086   YZ=     0.0053

 Normal termination of Gaussian 03 at Mon May  4 20:08:52 2015.
