 Gaussian 03, Revision E.01,
 Gaussian 03:  EM64T-G03RevE.01 11-Sep-2007

 -------------------------------------
 # b3lyp/6-31G(d,p) pop=(ReadRadii,MK)
 -------------------------------------

 ---------
 Ca2PO3_30
 ---------
 Symbolic Z-matrix:
 Charge =  0 Multiplicity = 1

                         Standard orientation:
 ---------------------------------------------------------------------
 Center     Atomic     Atomic              Coordinates (Angstroms)
 Number     Number      Type              X           Y           Z
 ---------------------------------------------------------------------
    1          8             0       -1.521234    1.084115   -0.478819
    2          8             0        0.046255   -0.102915    1.056490
    3          8             0        1.159235    1.236141   -0.705891
    4         15             0       -0.294639    1.393658    0.455695
    5         20             0       -1.623809   -1.175366   -0.178163
    6         20             0        1.909030   -0.857768   -0.049092
    7          1             0        1.241113    2.019081   -1.264590
 ---------------------------------------------------------------------

 SCF Done:  E(RB+HF-LYP) =  -1922.88778912     A.U. after   11 cycles

 The electronic state is 1-A.
 Alpha  occ. eigenvalues -- -145.37771-145.37769 -77.13312 -19.14551 -19.09564
 Alpha  occ. eigenvalues --  -19.08188 -15.44906 -15.44897 -12.58111 -12.58109
 Alpha  occ. eigenvalues --  -12.58053 -12.58046 -12.57974 -12.57957  -6.58615
 Alpha  occ. eigenvalues --   -4.75096  -4.74876  -4.74338  -1.82287  -1.82254
 Alpha  occ. eigenvalues --   -1.10293  -1.09910  -1.09851  -1.09759  -1.09562
 Alpha  occ. eigenvalues --   -1.09460  -0.98582  -0.93617  -0.89142  -0.53899
 Alpha  occ. eigenvalues --   -0.46536  -0.39593  -0.37434  -0.35885  -0.31420
 Alpha  occ. eigenvalues --   -0.30048  -0.26792  -0.25816  -0.21409  -0.13436
 Alpha virt. eigenvalues --   -0.08905  -0.03683  -0.02546  -0.00888  -0.00119
 Alpha virt. eigenvalues --    0.00831   0.02436   0.04901   0.05332   0.07931
 Alpha virt. eigenvalues --    0.09324   0.10709   0.11271   0.12928   0.13616

 Mulliken atomic charges:
              1
     1  O   -0.739583
     2  O   -0.838817
     3  O   -0.741369
     4  P    0.918657
     5  Ca   0.537578
     6  Ca   0.539601
     7  H    0.323934
 Sum of Mulliken charges=   0.00000

 Dipole moment (field-independent basis, Debye):
    X=     1.0203    Y=    -1.1454    Z=    -0.4294  Tot=     1.5929
 Quadrupole moment (field-independent basis, Debye-Ang):
   XX=   -55.2852   YY=   -77.5018   ZZ=   -70.5405
   XY=     9.3915   XZ=    -1.4607   YZ=    -3.9414

 Normal termination of Gaussian 03 at Mon May  4 20:09:05 2015.
