 Gaussian 03, Revision E.01,
 Gaussian 03:  EM64T-G03RevE.01 11-Sep-2007

 -------------------------------------
 # b3lyp/6-31G(d,p) pop=(ReadRadii,MK)
 -------------------------------------

 ---------
 Ca2PO3_21
 ---------
 Symbolic Z-matrix:
 Charge =  0 Multiplicity = 1

                         Standard orientation:
 ---------------------------------------------------------------------
 Center     Atomic     Atomic              Coordinates (Angstroms)
 Number     Number      Type              X           Y           Z
 ---------------------------------------------------------------------
    1          8             0       -0.267237   -0.670907    1.075310
    2          8             0        1.607448    1.252832   -0.402424
    3          8             0       -1.916149    0.106218   -0.706218
    4         15             0       -1.213177   -1.211601   -0.167229
    5         20             0        1.686475   -0.848780   -0.099795
    6         20             0       -0.433863    1.579434    0.212101
    7          1             0       -2.247072   -1.944214    0.528940
 ---------------------------------------------------------------------

 SCF Done:  E(RB+HF-LYP) =  -1922.85817153     A.U. after   10 cycles

 The electronic state is 1-A.
 Alpha  occ. eigenvalues -- -145.35079-145.32645 -77.09363 -19.07294 -19.05829
 Alpha  occ. eigenvalues --  -18.99068 -15.42161 -15.39794 -12.55378 -12.55306
 Alpha  occ. eigenvalues --  -12.55232 -12.52989 -12.52981 -12.52831  -6.55191
 Alpha  occ. eigenvalues --   -4.71580  -4.71450  -4.71058  -1.79659  -1.77431
 Alpha  occ. eigenvalues --   -1.07632  -1.07354  -1.06709  -1.05422  -1.05145
 Alpha  occ. eigenvalues --   -1.04424  -0.91620  -0.86430  -0.73031  -0.51269
 Alpha  occ. eigenvalues --   -0.37390  -0.34646  -0.33157  -0.26910  -0.25111
 Alpha  occ. eigenvalues --   -0.23530  -0.18860  -0.17142  -0.16894  -0.16218
 Alpha virt. eigenvalues --   -0.07783  -0.05657  -0.00363   0.00910   0.01147
 Alpha virt. eigenvalues --    0.02743   0.03019   0.05171   0.06896   0.08657
 Alpha virt. eigenvalues --    0.09287   0.10995   0.13996   0.14952   0.15937

 Mulliken atomic charges:
              1
     1  O   -0.809291
     2  O   -0.895091
     3  O   -0.740540
     4  P    0.639120
     5  Ca   0.913250
     6  Ca   1.021051
     7  H   -0.128498
 Sum of Mulliken charges=   0.00000

 Dipole moment (field-independent basis, Debye):
    X=     3.4599    Y=     0.2449    Z=     2.3078  Tot=     4.1662
 Quadrupole moment (field-independent basis, Debye-Ang):
   XX=   -61.6046   YY=   -47.8529   ZZ=   -64.8034
   XY=   -23.6177   XZ=    -1.2963   YZ=     6.6121

 Normal termination of Gaussian 03 at Mon May  4 20:09:01 2015.
