 Gaussian 03, Revision E.01,
 Gaussian 03:  EM64T-G03RevE.01 11-Sep-2007

 -------------------------------------
 # b3lyp/6-31G(d,p) pop=(ReadRadii,MK)
 -------------------------------------

 ---------
 Ca2PO3_25
 ---------
 Symbolic Z-matrix:
 Charge =  0 Multiplicity = 1

                         Standard orientation:
 ---------------------------------------------------------------------
 Center     Atomic     Atomic              Coordinates (Angstroms)
 Number     Number      Type              X           Y           Z
 ---------------------------------------------------------------------
    1          8             0       -0.152799   -0.152292    1.209579
    2          8             0        1.940231   -0.989866   -0.001690
    3          8             0       -0.154551   -0.153072   -1.209191
    4         15             0        0.373049   -1.207649    0.000970
    5         20             0        1.414679    1.194352   -0.000079
    6         20             0       -2.147670    0.170359   -0.000100
    7          1             0       -3.998961    1.182346   -0.000571
 ---------------------------------------------------------------------

 SCF Done:  E(RB+HF-LYP) =  -1922.87975195     A.U. after    8 cycles

 The electronic state is 1-A.
 Alpha  occ. eigenvalues -- -145.40604-145.35211 -77.12551 -19.08984 -19.08886
 Alpha  occ. eigenvalues --  -19.08291 -15.47611 -15.42477 -12.60769 -12.60768
 Alpha  occ. eigenvalues --  -12.60750 -12.55727 -12.55647 -12.55449  -6.57957
 Alpha  occ. eigenvalues --   -4.74290  -4.74255  -4.73877  -1.84900  -1.80129
 Alpha  occ. eigenvalues --   -1.12962  -1.12231  -1.12186  -1.08238  -1.07748
 Alpha  occ. eigenvalues --   -1.07168  -0.94998  -0.88604  -0.87030  -0.49591
 Alpha  occ. eigenvalues --   -0.37170  -0.36905  -0.36592  -0.30976  -0.29517
 Alpha  occ. eigenvalues --   -0.26406  -0.24812  -0.22830  -0.20956  -0.19940
 Alpha virt. eigenvalues --   -0.10852  -0.03563  -0.02206  -0.01993   0.00525
 Alpha virt. eigenvalues --    0.01103   0.02680   0.05148   0.06511   0.08345
 Alpha virt. eigenvalues --    0.09362   0.09550   0.11224   0.11399   0.13404

 Mulliken atomic charges:
              1
     1  O   -0.807980
     2  O   -0.712464
     3  O   -0.806727
     4  P    0.964768
     5  Ca   0.870967
     6  Ca   0.788819
     7  H   -0.297383
 Sum of Mulliken charges=   0.00000

 Dipole moment (field-independent basis, Debye):
    X=     4.3843    Y=     6.1528    Z=     0.0029  Tot=     7.5550
 Quadrupole moment (field-independent basis, Debye-Ang):
   XX=   -77.3796   YY=   -55.9052   ZZ=   -68.8328
   XY=    27.1678   XZ=    -0.0006   YZ=    -0.0038

 Normal termination of Gaussian 03 at Mon May  4 20:09:00 2015.
