 Gaussian 03, Revision E.01,
 Gaussian 03:  EM64T-G03RevE.01 11-Sep-2007

 -------------------------------------
 # b3lyp/6-31G(d,p) pop=(ReadRadii,MK)
 -------------------------------------

 ---------
 Ca2PO3_15
 ---------
 Symbolic Z-matrix:
 Charge =  0 Multiplicity = 1

                         Standard orientation:
 ---------------------------------------------------------------------
 Center     Atomic     Atomic              Coordinates (Angstroms)
 Number     Number      Type              X           Y           Z
 ---------------------------------------------------------------------
    1          8             0       -1.502782    1.091396   -0.489444
    2          8             0        0.047631   -0.105715    1.058180
    3          8             0        1.176787    1.237551   -0.692369
    4         15             0       -0.283918    1.393358    0.458963
    5         20             0        1.902682   -0.869541   -0.052837
    6         20             0       -1.638858   -1.163675   -0.176381
    7          1             0        1.209196    1.978091   -1.311010
 ---------------------------------------------------------------------

 SCF Done:  E(RB+HF-LYP) =  -1922.88777798     A.U. after   11 cycles

 The electronic state is 1-A.
 Alpha  occ. eigenvalues -- -145.37803-145.37791 -77.13311 -19.14544 -19.09578
 Alpha  occ. eigenvalues --  -19.08214 -15.44929 -15.44927 -12.58141 -12.58132
 Alpha  occ. eigenvalues --  -12.58078 -12.58075 -12.57996 -12.57988  -6.58613
 Alpha  occ. eigenvalues --   -4.75095  -4.74876  -4.74334  -1.82311  -1.82280
 Alpha  occ. eigenvalues --   -1.10306  -1.09936  -1.09874  -1.09784  -1.09591
 Alpha  occ. eigenvalues --   -1.09486  -0.98600  -0.93608  -0.89159  -0.53926
 Alpha  occ. eigenvalues --   -0.46503  -0.39619  -0.37354  -0.36022  -0.31567
 Alpha  occ. eigenvalues --   -0.29833  -0.26864  -0.25838  -0.21394  -0.13439
 Alpha virt. eigenvalues --   -0.08924  -0.03695  -0.02571  -0.00911  -0.00102
 Alpha virt. eigenvalues --    0.00805   0.02435   0.04902   0.05318   0.07921
 Alpha virt. eigenvalues --    0.09264   0.10784   0.11202   0.12931   0.13613

 Mulliken atomic charges:
              1
     1  O   -0.741850
     2  O   -0.838509
     3  O   -0.741153
     4  P    0.920712
     5  Ca   0.538214
     6  Ca   0.538423
     7  H    0.324164
 Sum of Mulliken charges=   0.00000

 Dipole moment (field-independent basis, Debye):
    X=     0.9504    Y=    -1.2106    Z=    -0.4833  Tot=     1.6132
 Quadrupole moment (field-independent basis, Debye-Ang):
   XX=   -55.2453   YY=   -77.9450   ZZ=   -70.3296
   XY=     8.8045   XZ=    -1.5179   YZ=    -4.0860

 Normal termination of Gaussian 03 at Mon May  4 20:08:54 2015.
