 Gaussian 03, Revision E.01,
 Gaussian 03:  EM64T-G03RevE.01 11-Sep-2007

 -------------------------------------
 # b3lyp/6-31G(d,p) pop=(ReadRadii,MK)
 -------------------------------------

 ---------
 Ca2PO3_11
 ---------
 Symbolic Z-matrix:
 Charge =  0 Multiplicity = 1

                         Standard orientation:
 ---------------------------------------------------------------------
 Center     Atomic     Atomic              Coordinates (Angstroms)
 Number     Number      Type              X           Y           Z
 ---------------------------------------------------------------------
    1          8             0       -2.174088   -0.453149    0.008118
    2          8             0        0.146445   -1.517620   -0.005956
    3          8             0        3.793011    0.311765    0.014008
    4         15             0       -1.372497   -1.765011    0.002592
    5         20             0       -1.639540    1.809189    0.000291
    6         20             0        1.725661    0.157044   -0.010135
    7          1             0        4.742081    0.422562    0.028638
 ---------------------------------------------------------------------

 SCF Done:  E(RB+HF-LYP) =  -1922.88121119     A.U. after    9 cycles

 The electronic state is 1-A.
 Alpha  occ. eigenvalues -- -145.38500-145.35192 -77.16735 -19.14670 -19.14551
 Alpha  occ. eigenvalues --  -19.03899 -15.45666 -15.42397 -12.58836 -12.58828
 Alpha  occ. eigenvalues --  -12.58715 -12.55641 -12.55572 -12.55399  -6.62453
 Alpha  occ. eigenvalues --   -4.78896  -4.78657  -4.78227  -1.82998  -1.79976
 Alpha  occ. eigenvalues --   -1.10487  -1.10441  -1.10240  -1.07963  -1.07710
 Alpha  occ. eigenvalues --   -1.07443  -1.00848  -0.95484  -0.85108  -0.54394
 Alpha  occ. eigenvalues --   -0.43870  -0.39968  -0.39745  -0.37545  -0.32439
 Alpha  occ. eigenvalues --   -0.30869  -0.27980  -0.21688  -0.21682  -0.15487
 Alpha virt. eigenvalues --   -0.06912  -0.06832  -0.04323  -0.01848  -0.00483
 Alpha virt. eigenvalues --    0.00759   0.02411   0.03177   0.04299   0.08114
 Alpha virt. eigenvalues --    0.09433   0.10362   0.10429   0.12175   0.13813

 Mulliken atomic charges:
              1
     1  O   -0.653555
     2  O   -0.664069
     3  O   -0.827794
     4  P    0.732810
     5  Ca   0.232310
     6  Ca   0.909174
     7  H    0.271124
 Sum of Mulliken charges=   0.00000

 Dipole moment (field-independent basis, Debye):
    X=    -2.6743    Y=     0.4618    Z=    -0.0375  Tot=     2.7142
 Quadrupole moment (field-independent basis, Debye-Ang):
   XX=   -73.6355   YY=   -73.5823   ZZ=   -63.7300
   XY=    -5.7682   XZ=    -0.0907   YZ=     0.0477

 Normal termination of Gaussian 03 at Mon May  4 20:08:49 2015.
