 Gaussian 03, Revision E.01,
 Gaussian 03:  EM64T-G03RevE.01 11-Sep-2007

 -------------------------------------
 # b3lyp/6-31G(d,p) pop=(ReadRadii,MK)
 -------------------------------------

 ---------
 Ca2PO3_31
 ---------
 Symbolic Z-matrix:
 Charge =  0 Multiplicity = 1

                         Standard orientation:
 ---------------------------------------------------------------------
 Center     Atomic     Atomic              Coordinates (Angstroms)
 Number     Number      Type              X           Y           Z
 ---------------------------------------------------------------------
    1          8             0        1.436280    1.139560    0.019334
    2          8             0        1.178713   -1.396233    0.017566
    3          8             0       -1.789481    0.178478    0.725275
    4         15             0        2.156968   -0.214679    0.133842
    5         20             0       -0.721090    1.925917   -0.225873
    6         20             0       -1.090114   -1.747274   -0.225098
    7          1             0       -2.734551    0.272886    0.914385
 ---------------------------------------------------------------------

 SCF Done:  E(RB+HF-LYP) =  -1922.90153927     A.U. after   10 cycles

 The electronic state is 1-A.
 Alpha  occ. eigenvalues -- -145.37012-145.36942 -77.16083 -19.14034 -19.13950
 Alpha  occ. eigenvalues --  -19.10518 -15.44173 -15.44106 -12.57385 -12.57318
 Alpha  occ. eigenvalues --  -12.57286 -12.57261 -12.57218 -12.57193  -6.61808
 Alpha  occ. eigenvalues --   -4.78250  -4.78016  -4.77579  -1.81584  -1.81519
 Alpha  occ. eigenvalues --   -1.09430  -1.09242  -1.09174  -1.09151  -1.09030
 Alpha  occ. eigenvalues --   -1.08628  -1.00260  -0.94845  -0.91859  -0.53782
 Alpha  occ. eigenvalues --   -0.43288  -0.43240  -0.39235  -0.39019  -0.31767
 Alpha  occ. eigenvalues --   -0.30544  -0.30216  -0.28510  -0.27325  -0.12336
 Alpha virt. eigenvalues --   -0.08532  -0.06167  -0.03405  -0.01787  -0.01107
 Alpha virt. eigenvalues --    0.00082   0.00118   0.02780   0.05314   0.07697
 Alpha virt. eigenvalues --    0.10295   0.10648   0.10947   0.13248   0.13813

 Mulliken atomic charges:
              1
     1  O   -0.658737
     2  O   -0.660270
     3  O   -0.812535
     4  P    0.718160
     5  Ca   0.547140
     6  Ca   0.559435
     7  H    0.306808
 Sum of Mulliken charges=   0.00000

 Dipole moment (field-independent basis, Debye):
    X=    -0.5536    Y=    -0.1076    Z=     0.9707  Tot=     1.1226
 Quadrupole moment (field-independent basis, Debye-Ang):
   XX=   -76.1852   YY=   -65.9833   ZZ=   -70.9626
   XY=     1.2536   XZ=    -3.3359   YZ=     0.4202

 Normal termination of Gaussian 03 at Mon May  4 20:09:04 2015.
