 Gaussian 03, Revision E.01,
 Gaussian 03:  EM64T-G03RevE.01 11-Sep-2007

 -------------------------------------
 # b3lyp/6-31G(d,p) pop=(ReadRadii,MK)
 -------------------------------------

 ---------
 Ca2PO3_33
 ---------
 Symbolic Z-matrix:
 Charge =  0 Multiplicity = 1

                         Standard orientation:
 ---------------------------------------------------------------------
 Center     Atomic     Atomic              Coordinates (Angstroms)
 Number     Number      Type              X           Y           Z
 ---------------------------------------------------------------------
    1          8             0        1.554270    1.242811    0.048214
    2          8             0        3.865450   -0.007685   -0.391730
    3          8             0        1.548090   -1.240649    0.060527
    4         15             0        2.420950   -0.001880   -0.110879
    5         20             0       -0.450522    0.006766    0.387024
    6         20             0       -4.041120   -0.003818   -0.269581
    7          1             0       -2.223920    0.013437    1.578230
 ---------------------------------------------------------------------

 SCF Done:  E(RB+HF-LYP) =  -1922.81891997     A.U. after    7 cycles

 The electronic state is 1-A.
 Alpha  occ. eigenvalues -- -145.40523-145.39601 -77.22643 -19.16746 -19.16737
 Alpha  occ. eigenvalues --  -19.15883 -15.47670 -15.46755 -12.60886 -12.60869
 Alpha  occ. eigenvalues --  -12.60697 -12.59903 -12.59898 -12.59836  -6.68168
 Alpha  occ. eigenvalues --   -4.84761  -4.84263  -4.84217  -1.85080  -1.83981
 Alpha  occ. eigenvalues --   -1.13018  -1.12754  -1.12493  -1.11336  -1.11276
 Alpha  occ. eigenvalues --   -1.11083  -1.05716  -0.98577  -0.98011  -0.53773
 Alpha  occ. eigenvalues --   -0.45413  -0.44328  -0.43970  -0.38039  -0.34723
 Alpha  occ. eigenvalues --   -0.34038  -0.33592  -0.30591  -0.27654  -0.15018
 Alpha virt. eigenvalues --   -0.08840  -0.05562  -0.05473  -0.02008  -0.01713
 Alpha virt. eigenvalues --   -0.00731  -0.00062   0.00556   0.02939   0.06647
 Alpha virt. eigenvalues --    0.08111   0.09193   0.10075   0.12068   0.12809

 Mulliken atomic charges:
              1
     1  O   -0.646585
     2  O   -0.481518
     3  O   -0.646651
     4  P    1.157632
     5  Ca   0.971876
     6  Ca   0.041866
     7  H   -0.396620
 Sum of Mulliken charges=   0.00000

 Dipole moment (field-independent basis, Debye):
    X=    -4.0866    Y=     0.0309    Z=     1.9854  Tot=     4.5434
 Quadrupole moment (field-independent basis, Debye-Ang):
   XX=   -85.0417   YY=   -72.8089   ZZ=   -72.3734
   XY=    -0.0056   XZ=    -3.2683   YZ=    -0.0263

 Normal termination of Gaussian 03 at Mon May  4 20:09:04 2015.
