 Gaussian 03, Revision E.01,
 Gaussian 03:  EM64T-G03RevE.01 11-Sep-2007

 -------------------------------------
 # b3lyp/6-31G(d,p) pop=(ReadRadii,MK)
 -------------------------------------

 ---------
 Ca2PO3_35
 ---------
 Symbolic Z-matrix:
 Charge =  0 Multiplicity = 1

                         Standard orientation:
 ---------------------------------------------------------------------
 Center     Atomic     Atomic              Coordinates (Angstroms)
 Number     Number      Type              X           Y           Z
 ---------------------------------------------------------------------
    1          8             0       -2.182981    1.243980   -0.064090
    2          8             0       -2.182371   -1.243540   -0.071548
    3          8             0        1.726669   -0.004779    1.127170
    4         15             0       -3.097911    0.000000   -0.069604
    5         20             0        3.442759    0.001436   -0.366635
    6         20             0       -0.155218    0.000756   -0.082208
    7          1             0        1.827329   -0.009143    2.088690
 ---------------------------------------------------------------------

 SCF Done:  E(RB+HF-LYP) =  -1922.90914242     A.U. after    8 cycles

 The electronic state is 1-A.
 Alpha  occ. eigenvalues -- -145.37139-145.36879 -77.15665 -19.13667 -19.13653
 Alpha  occ. eigenvalues --  -19.11229 -15.44316 -15.44078 -12.57536 -12.57498
 Alpha  occ. eigenvalues --  -12.57341 -12.57249 -12.57236 -12.57117  -6.61580
 Alpha  occ. eigenvalues --   -4.78013  -4.77747  -4.77375  -1.81843  -1.81474
 Alpha  occ. eigenvalues --   -1.09878  -1.09615  -1.09465  -1.08972  -1.08944
 Alpha  occ. eigenvalues --   -1.08608  -1.00107  -0.94207  -0.92616  -0.52521
 Alpha  occ. eigenvalues --   -0.44624  -0.41193  -0.39573  -0.39092  -0.31310
 Alpha  occ. eigenvalues --   -0.30728  -0.29643  -0.29020  -0.27336  -0.14404
 Alpha virt. eigenvalues --   -0.06699  -0.06150  -0.03437  -0.03197  -0.00058
 Alpha virt. eigenvalues --    0.00284   0.01032   0.03607   0.05136   0.08277
 Alpha virt. eigenvalues --    0.08885   0.10882   0.11336   0.11579   0.13466

 Mulliken atomic charges:
              1
     1  O   -0.649110
     2  O   -0.648787
     3  O   -0.825472
     4  P    0.750605
     5  Ca   0.189543
     6  Ca   0.885502
     7  H    0.297720
 Sum of Mulliken charges=   0.00000

 Dipole moment (field-independent basis, Debye):
    X=     1.7756    Y=    -0.0088    Z=     1.8413  Tot=     2.5580
 Quadrupole moment (field-independent basis, Debye-Ang):
   XX=   -73.3386   YY=   -75.8803   ZZ=   -65.8297
   XY=    -0.0248   XZ=     6.3677   YZ=    -0.0304

 Normal termination of Gaussian 03 at Mon May  4 20:41:34 2015.
