 Gaussian 03, Revision E.01,
 Gaussian 03:  EM64T-G03RevE.01 11-Sep-2007

 -------------------------------------
 # b3lyp/6-31G(d,p) pop=(ReadRadii,MK)
 -------------------------------------

 --------
 Ca2PO3_7
 --------
 Symbolic Z-matrix:
 Charge =  0 Multiplicity = 1

                         Standard orientation:
 ---------------------------------------------------------------------
 Center     Atomic     Atomic              Coordinates (Angstroms)
 Number     Number      Type              X           Y           Z
 ---------------------------------------------------------------------
    1          8             0       -2.066040   -0.495815   -0.000623
    2          8             0        0.166257   -0.448238   -1.227970
    3          8             0        0.165030   -0.448073    1.228150
    4         15             0       -0.682853   -1.287079    0.000180
    5         20             0        1.978090    0.009597    0.000055
    6         20             0       -0.842497    1.403381   -0.000034
    7          1             0        1.408962    2.183629    0.000444
 ---------------------------------------------------------------------

 SCF Done:  E(RB+HF-LYP) =  -1922.88640471     A.U. after    8 cycles

 The electronic state is 1-A.
 Alpha  occ. eigenvalues -- -145.37595-145.35779 -77.08743 -19.05314 -19.05108
 Alpha  occ. eigenvalues --  -19.03947 -15.44677 -15.42850 -12.57860 -12.57825
 Alpha  occ. eigenvalues --  -12.57782 -12.56043 -12.56036 -12.55919  -6.53994
 Alpha  occ. eigenvalues --   -4.70363  -4.70312  -4.69844  -1.82155  -1.80289
 Alpha  occ. eigenvalues --   -1.10181  -1.09522  -1.09460  -1.08113  -1.07769
 Alpha  occ. eigenvalues --   -1.07376  -0.90770  -0.84200  -0.83376  -0.46039
 Alpha  occ. eigenvalues --   -0.33609  -0.33143  -0.32541  -0.27726  -0.25597
 Alpha  occ. eigenvalues --   -0.25378  -0.22199  -0.21026  -0.19809  -0.15903
 Alpha virt. eigenvalues --   -0.08573  -0.05945  -0.01009  -0.00338   0.00839
 Alpha virt. eigenvalues --    0.02366   0.03941   0.05539   0.06532   0.09534
 Alpha virt. eigenvalues --    0.11772   0.12288   0.12455   0.14190   0.14750

 Mulliken atomic charges:
              1
     1  O   -0.752114
     2  O   -0.831709
     3  O   -0.835526
     4  P    0.944082
     5  Ca   0.978930
     6  Ca   0.914864
     7  H   -0.418527
 Sum of Mulliken charges=   0.00000

 Dipole moment (field-independent basis, Debye):
    X=     7.2553    Y=     5.8683    Z=    -0.0137  Tot=     9.3315
 Quadrupole moment (field-independent basis, Debye-Ang):
   XX=   -43.2724   YY=   -60.7538   ZZ=   -68.7329
   XY=   -19.6609   XZ=     0.0009   YZ=     0.0054

 Normal termination of Gaussian 03 at Mon May  4 20:09:09 2015.
