 Gaussian 03, Revision E.01,
 Gaussian 03:  EM64T-G03RevE.01 11-Sep-2007

 -------------------------------------
 # b3lyp/6-31G(d,p) pop=(ReadRadii,MK)
 -------------------------------------

 ---------
 Ca2PO3_26
 ---------
 Symbolic Z-matrix:
 Charge =  0 Multiplicity = 1

                         Standard orientation:
 ---------------------------------------------------------------------
 Center     Atomic     Atomic              Coordinates (Angstroms)
 Number     Number      Type              X           Y           Z
 ---------------------------------------------------------------------
    1          8             0       -2.376900    0.118951    0.237732
    2          8             0       -0.217125   -1.017861   -0.231271
    3          8             0        1.487789    1.239511    0.638620
    4         15             0       -1.711389   -1.261142    0.144455
    5         20             0        2.141070   -0.813150   -0.109735
    6         20             0       -0.521595    1.526359   -0.299004
    7          1             0        2.131218    1.928131    0.847314
 ---------------------------------------------------------------------

 SCF Done:  E(RB+HF-LYP) =  -1922.90289421     A.U. after   12 cycles

 The electronic state is 1-A.
 Alpha  occ. eigenvalues -- -145.37502-145.36407 -77.17447 -19.15803 -19.15059
 Alpha  occ. eigenvalues --  -19.10275 -15.44642 -15.43570 -12.57857 -12.57795
 Alpha  occ. eigenvalues --  -12.57702 -12.56768 -12.56703 -12.56645  -6.63279
 Alpha  occ. eigenvalues --   -4.79703  -4.79475  -4.79057  -1.82062  -1.80952
 Alpha  occ. eigenvalues --   -1.10015  -1.09765  -1.09495  -1.08576  -1.08522
 Alpha  occ. eigenvalues --   -1.08167  -1.01786  -0.95997  -0.91618  -0.55045
 Alpha  occ. eigenvalues --   -0.44176  -0.43085  -0.41335  -0.40556  -0.32794
 Alpha  occ. eigenvalues --   -0.31686  -0.30193  -0.29093  -0.28116  -0.11991
 Alpha virt. eigenvalues --   -0.08205  -0.07806  -0.03026  -0.01886  -0.01041
 Alpha virt. eigenvalues --   -0.00250   0.00310   0.02791   0.05492   0.06526
 Alpha virt. eigenvalues --    0.08261   0.10407   0.11541   0.13221   0.13880

 Mulliken atomic charges:
              1
     1  O   -0.632895
     2  O   -0.699224
     3  O   -0.817593
     4  P    0.765743
     5  Ca   0.454521
     6  Ca   0.622766
     7  H    0.306683
 Sum of Mulliken charges=   0.00000

 Dipole moment (field-independent basis, Debye):
    X=    -0.9324    Y=     1.0019    Z=     0.6931  Tot=     1.5341
 Quadrupole moment (field-independent basis, Debye-Ang):
   XX=   -78.8949   YY=   -67.9435   ZZ=   -71.0319
   XY=    -0.0791   XZ=     3.3793   YZ=     0.3590

 Normal termination of Gaussian 03 at Mon May  4 20:09:05 2015.
