 Gaussian 03, Revision E.01,
 Gaussian 03:  EM64T-G03RevE.01 11-Sep-2007

 -------------------------------------
 # b3lyp/6-31G(d,p) pop=(ReadRadii,MK)
 -------------------------------------

 --------
 Ca2PO3_4
 --------
 Symbolic Z-matrix:
 Charge =  0 Multiplicity = 1

                         Standard orientation:
 ---------------------------------------------------------------------
 Center     Atomic     Atomic              Coordinates (Angstroms)
 Number     Number      Type              X           Y           Z
 ---------------------------------------------------------------------
    1          8             0       -0.769174   -0.357942   -1.221460
    2          8             0       -0.768441   -0.352540    1.222050
    3          8             0        2.093209    0.532624   -0.000329
    4         15             0       -1.845369   -0.333783    0.000424
    5         20             0        1.033664   -1.324649    0.000605
    6         20             0        0.233305    1.585699   -0.000899
    7          1             0       -2.103603    1.208623   -0.002545
 ---------------------------------------------------------------------

 SCF Done:  E(RB+HF-LYP) =  -1922.85533352     A.U. after    8 cycles

 The electronic state is 1-A.
 Alpha  occ. eigenvalues -- -145.34787-145.34272 -77.10295 -19.07445 -19.07354
 Alpha  occ. eigenvalues --  -18.98654 -15.41826 -15.41346 -12.55022 -12.55020
 Alpha  occ. eigenvalues --  -12.54892 -12.54526 -12.54524 -12.54425  -6.56074
 Alpha  occ. eigenvalues --   -4.72423  -4.72351  -4.71851  -1.79292  -1.78852
 Alpha  occ. eigenvalues --   -1.07885  -1.06904  -1.06635  -1.06402  -1.06233
 Alpha  occ. eigenvalues --   -1.05564  -0.92966  -0.86824  -0.72673  -0.51583
 Alpha  occ. eigenvalues --   -0.38476  -0.35124  -0.33782  -0.27217  -0.26510
 Alpha  occ. eigenvalues --   -0.22963  -0.18829  -0.18273  -0.16654  -0.16452
 Alpha virt. eigenvalues --   -0.07442  -0.06308   0.00620   0.00835   0.01348
 Alpha virt. eigenvalues --    0.01769   0.03550   0.04768   0.07043   0.07786
 Alpha virt. eigenvalues --    0.08039   0.09844   0.14160   0.15452   0.15566

 Mulliken atomic charges:
              1
     1  O   -0.801577
     2  O   -0.803394
     3  O   -0.891651
     4  P    0.750534
     5  Ca   1.000350
     6  Ca   0.999848
     7  H   -0.254109
 Sum of Mulliken charges=   0.00000

 Dipole moment (field-independent basis, Debye):
    X=     1.2622    Y=    -0.2466    Z=    -0.0079  Tot=     1.2861
 Quadrupole moment (field-independent basis, Debye-Ang):
   XX=   -81.1066   YY=   -30.4693   ZZ=   -67.2616
   XY=   -13.6312   XZ=     0.0133   YZ=    -0.0320

 Normal termination of Gaussian 03 at Mon May  4 20:09:06 2015.
