 Gaussian 03, Revision E.01,
 Gaussian 03:  EM64T-G03RevE.01 11-Sep-2007

 -------------------------------------
 # b3lyp/6-31G(d,p) pop=(ReadRadii,MK)
 -------------------------------------

 ---------
 Ca2PO3_32
 ---------
 Symbolic Z-matrix:
 Charge =  0 Multiplicity = 1

                         Standard orientation:
 ---------------------------------------------------------------------
 Center     Atomic     Atomic              Coordinates (Angstroms)
 Number     Number      Type              X           Y           Z
 ---------------------------------------------------------------------
    1          8             0        1.724071   -0.841117    0.645799
    2          8             0        0.864069   -1.106569   -0.466675
    3          8             0        2.846411   -0.012413    0.096751
    4         15             0       -2.050101    1.246088    0.162805
    5         20             0       -1.485708   -1.415242   -0.039484
    6         20             0        0.688635    1.296740   -0.165407
    7          1             0        3.216561   -0.640508   -0.551245
 ---------------------------------------------------------------------

 SCF Done:  E(RB+HF-LYP) =  -1922.58738846     A.U. after   11 cycles

 The electronic state is 1-A.
 Alpha  occ. eigenvalues -- -145.37822-145.37276 -76.97631 -19.29031 -19.25251
 Alpha  occ. eigenvalues --  -19.17727 -15.44957 -15.44424 -12.58119 -12.58106
 Alpha  occ. eigenvalues --  -12.58046 -12.57603 -12.57587 -12.57492  -6.44613
 Alpha  occ. eigenvalues --   -4.60856  -4.60681  -4.60478  -1.82318  -1.81886
 Alpha  occ. eigenvalues --   -1.17562  -1.09879  -1.09833  -1.09453  -1.09371
 Alpha  occ. eigenvalues --   -1.09216  -1.08526  -1.00936  -0.81592  -0.56262
 Alpha  occ. eigenvalues --   -0.49780  -0.48275  -0.44979  -0.41510  -0.36031
 Alpha  occ. eigenvalues --   -0.31157  -0.26451  -0.15948  -0.15205  -0.13035
 Alpha virt. eigenvalues --   -0.08127  -0.06740  -0.05060  -0.01514  -0.01113
 Alpha virt. eigenvalues --   -0.00106   0.00403   0.01241   0.03717   0.05293
 Alpha virt. eigenvalues --    0.06459   0.08169   0.10037   0.11682   0.13535

 Mulliken atomic charges:
              1
     1  O   -0.099935
     2  O   -0.490757
     3  O   -0.351077
     4  P   -0.713807
     5  Ca   0.595410
     6  Ca   0.701653
     7  H    0.358513
 Sum of Mulliken charges=   0.00000

 Dipole moment (field-independent basis, Debye):
    X=     6.4629    Y=    -4.0771    Z=    -1.6123  Tot=     7.8097
 Quadrupole moment (field-independent basis, Debye-Ang):
   XX=   -73.0779   YY=   -59.4664   ZZ=   -69.9980
   XY=    21.7796   XZ=    -3.2505   YZ=    -1.3796

 Normal termination of Gaussian 03 at Mon May  4 20:09:04 2015.
