 Gaussian 03, Revision E.01,
 Gaussian 03:  EM64T-G03RevE.01 11-Sep-2007

 -------------------------------------
 # b3lyp/6-31G(d,p) pop=(ReadRadii,MK)
 -------------------------------------

 ---------
 Ca3PO4_52
 ---------
 Symbolic Z-matrix:
 Charge =  0 Multiplicity = 1

                         Standard orientation:
 ---------------------------------------------------------------------
 Center     Atomic     Atomic              Coordinates (Angstroms)
 Number     Number      Type              X           Y           Z
 ---------------------------------------------------------------------
    1          8             0        3.074080    0.914090   -0.342698
    2          8             0        0.699192    1.512751    0.421200
    3          8             0        0.887967   -1.907489    0.191258
    4          8             0       -2.879569   -0.474307    0.926075
    5         15             0        2.095080    2.035301    0.077419
    6         20             0        2.801671   -1.357258   -0.438557
    7         20             0       -4.273010    0.297207   -0.703521
    8         20             0       -0.649283   -0.429416    0.527939
    9          1             0       -3.267119   -1.100531    1.554810
 ---------------------------------------------------------------------

 SCF Done:  E(RB+HF-LYP) =  -2675.72976241     A.U. after   12 cycles

 The electronic state is 1-A.
 Alpha  occ. eigenvalues -- -145.37134-145.34283-145.30622 -77.16422 -19.14658
 Alpha  occ. eigenvalues --  -19.14278 -19.08832 -19.00822 -15.44263 -15.41500
 Alpha  occ. eigenvalues --  -15.37883 -12.57487 -12.57423 -12.57298 -12.54674
 Alpha  occ. eigenvalues --  -12.54658 -12.54531 -12.51146 -12.51018 -12.50886
 Alpha  occ. eigenvalues --   -6.62130  -4.78570  -4.78334  -4.77914  -1.81789
 Alpha  occ. eigenvalues --   -1.78913  -1.75673  -1.09704  -1.09521  -1.08797
 Alpha  occ. eigenvalues --   -1.06476  -1.06393  -1.06163  -1.03943  -1.03738
 Alpha  occ. eigenvalues --   -1.02955  -1.00325  -0.95170  -0.90114  -0.74782
 Alpha  occ. eigenvalues --   -0.53995  -0.43436  -0.41640  -0.39517  -0.39434
 Alpha  occ. eigenvalues --   -0.32169  -0.30627  -0.28979  -0.27369  -0.26595
 Alpha  occ. eigenvalues --   -0.20787  -0.19084  -0.18928  -0.11573
 Alpha virt. eigenvalues --   -0.09555  -0.06429  -0.03263  -0.02307  -0.01714
 Alpha virt. eigenvalues --   -0.01254  -0.00156   0.00357   0.01427   0.03395
 Alpha virt. eigenvalues --    0.04194   0.05284   0.06597   0.08036   0.10249

 Mulliken atomic charges:
              1
     1  O   -0.678544
     2  O   -0.635762
     3  O   -0.895872
     4  O   -0.826039
     5  P    0.719513
     6  Ca   1.071159
     7  Ca  -0.035754
     8  Ca   0.989973
     9  H    0.291325
 Sum of Mulliken charges=   0.00000

 Dipole moment (field-independent basis, Debye):
    X=     7.7992    Y=    -2.4773    Z=     0.8053  Tot=     8.2227
 Quadrupole moment (field-independent basis, Debye-Ang):
   XX=   -84.6813   YY=   -99.3728   ZZ=   -87.9114
   XY=    -9.7727   XZ=   -13.3851   YZ=     2.8012

 Normal termination of Gaussian 03 at Mon May  4 20:12:44 2015.
