 Gaussian 03, Revision E.01,
 Gaussian 03:  EM64T-G03RevE.01 11-Sep-2007

 -------------------------------------
 # b3lyp/6-31G(d,p) pop=(ReadRadii,MK)
 -------------------------------------

 ----------
 Ca3PO4_154
 ----------
 Symbolic Z-matrix:
 Charge =  0 Multiplicity = 1

                         Standard orientation:
 ---------------------------------------------------------------------
 Center     Atomic     Atomic              Coordinates (Angstroms)
 Number     Number      Type              X           Y           Z
 ---------------------------------------------------------------------
    1          8             0        0.499301   -2.508050    0.097797
    2          8             0        1.795271    0.489835    0.678243
    3          8             0       -0.198020   -1.129070    0.299817
    4          8             0       -4.151979    0.059340   -0.600590
    5         15             0        0.460698   -0.075576    1.530931
    6         20             0        1.015773    2.372079   -0.367088
    7         20             0        1.888340   -1.123662   -0.955811
    8         20             0       -2.175219    0.040393    0.031641
    9          1             0       -5.044899    0.061000   -0.940895
 ---------------------------------------------------------------------

 SCF Done:  E(RB+HF-LYP) =  -2675.56489329     A.U. after   12 cycles

 The electronic state is 1-A.
 Alpha  occ. eigenvalues -- -145.38137-145.37830-145.35127 -77.10026 -19.18506
 Alpha  occ. eigenvalues --  -19.10845 -19.10514 -19.04473 -15.45288 -15.44948
 Alpha  occ. eigenvalues --  -15.42335 -12.58472 -12.58444 -12.58346 -12.58171
 Alpha  occ. eigenvalues --  -12.58081 -12.58027 -12.55573 -12.55527 -12.55328
 Alpha  occ. eigenvalues --   -6.56117  -4.72625  -4.72225  -4.71799  -1.82665
 Alpha  occ. eigenvalues --   -1.82408  -1.79947  -1.10731  -1.10236  -1.10121
 Alpha  occ. eigenvalues --   -1.10105  -1.09946  -1.09558  -1.07922  -1.07776
 Alpha  occ. eigenvalues --   -1.07435  -1.00194  -0.91890  -0.85524  -0.79763
 Alpha  occ. eigenvalues --   -0.53368  -0.41630  -0.40369  -0.39031  -0.37732
 Alpha  occ. eigenvalues --   -0.33511  -0.30821  -0.28824  -0.22444  -0.22142
 Alpha  occ. eigenvalues --   -0.22070  -0.21655  -0.16245  -0.14951
 Alpha virt. eigenvalues --   -0.09196  -0.06341  -0.04842  -0.02284  -0.01402
 Alpha virt. eigenvalues --   -0.01047  -0.00215   0.00407   0.02200   0.02468
 Alpha virt. eigenvalues --    0.03465   0.04266   0.06497   0.07110   0.07708

 Mulliken atomic charges:
              1
     1  O   -0.473173
     2  O   -0.822991
     3  O   -0.555746
     4  O   -0.819707
     5  P    0.373552
     6  Ca   0.226706
     7  Ca   0.788337
     8  Ca   1.009767
     9  H    0.273256
 Sum of Mulliken charges=   0.00000

 Dipole moment (field-independent basis, Debye):
    X=     3.9638    Y=     2.0545    Z=    -2.0951  Tot=     4.9317
 Quadrupole moment (field-independent basis, Debye-Ang):
   XX=   -88.1183   YY=   -91.6579   ZZ=   -95.5186
   XY=    -3.6148   XZ=   -10.1094   YZ=    10.9864

 Normal termination of Gaussian 03 at Mon May  4 20:10:36 2015.
