 Gaussian 03, Revision E.01,
 Gaussian 03:  EM64T-G03RevE.01 11-Sep-2007

 -------------------------------------
 # b3lyp/6-31G(d,p) pop=(ReadRadii,MK)
 -------------------------------------

 ----------
 Ca3PO4_178
 ----------
 Symbolic Z-matrix:
 Charge =  0 Multiplicity = 1

                         Standard orientation:
 ---------------------------------------------------------------------
 Center     Atomic     Atomic              Coordinates (Angstroms)
 Number     Number      Type              X           Y           Z
 ---------------------------------------------------------------------
    1          8             0       -1.212391   -1.854190    1.015490
    2          8             0       -0.018594    0.425796    0.848690
    3          8             0       -1.805769   -0.058561   -0.715900
    4          8             0        2.266480   -1.051672   -0.694871
    5         15             0       -1.597539   -0.322960    0.947813
    6         20             0        0.066358   -1.553651   -0.822216
    7         20             0       -0.889563    2.063610   -0.653771
    8         20             0        2.176481    0.816121    0.640707
    9          1             0        3.059760   -1.368183   -1.138860
 ---------------------------------------------------------------------

 SCF Done:  E(RB+HF-LYP) =  -2675.78234369     A.U. after   10 cycles

 The electronic state is 1-A.
 Alpha  occ. eigenvalues -- -145.36751-145.36274-145.34802 -77.10587 -19.10993
 Alpha  occ. eigenvalues --  -19.08287 -19.06727 -19.05743 -15.43873 -15.43409
 Alpha  occ. eigenvalues --  -15.41926 -12.57092 -12.57024 -12.56927 -12.56625
 Alpha  occ. eigenvalues --  -12.56522 -12.56505 -12.55151 -12.55100 -12.54964
 Alpha  occ. eigenvalues --   -6.55893  -4.72300  -4.72194  -4.71700  -1.81266
 Alpha  occ. eigenvalues --   -1.80844  -1.79522  -1.09100  -1.08984  -1.08566
 Alpha  occ. eigenvalues --   -1.08502  -1.08335  -1.08184  -1.07600  -1.07138
 Alpha  occ. eigenvalues --   -1.06873  -0.92960  -0.92177  -0.86663  -0.85429
 Alpha  occ. eigenvalues --   -0.48691  -0.44089  -0.36631  -0.35205  -0.34602
 Alpha  occ. eigenvalues --   -0.30813  -0.30055  -0.28620  -0.28148  -0.24620
 Alpha  occ. eigenvalues --   -0.23407  -0.22079  -0.18660  -0.13046
 Alpha virt. eigenvalues --   -0.07983  -0.06117  -0.03295  -0.02219  -0.00812
 Alpha virt. eigenvalues --    0.00306   0.00678   0.01786   0.02613   0.03445
 Alpha virt. eigenvalues --    0.05200   0.06499   0.08706   0.09127   0.09741

 Mulliken atomic charges:
              1
     1  O   -0.740069
     2  O   -0.890050
     3  O   -0.834523
     4  O   -0.845076
     5  P    0.959102
     6  Ca   0.905200
     7  Ca   0.422942
     8  Ca   0.725159
     9  H    0.297314
 Sum of Mulliken charges=   0.00000

 Dipole moment (field-independent basis, Debye):
    X=     4.3123    Y=    -1.2778    Z=    -3.8835  Tot=     5.9422
 Quadrupole moment (field-independent basis, Debye-Ang):
   XX=   -90.2800   YY=   -87.6339   ZZ=   -88.1969
   XY=   -14.9359   XZ=     8.2557   YZ=    13.6074

 Normal termination of Gaussian 03 at Mon May  4 20:11:06 2015.
