 Gaussian 03, Revision E.01,
 Gaussian 03:  EM64T-G03RevE.01 11-Sep-2007

 -------------------------------------
 # b3lyp/6-31G(d,p) pop=(ReadRadii,MK)
 -------------------------------------

 ----------
 Ca3PO4_153
 ----------
 Symbolic Z-matrix:
 Charge =  0 Multiplicity = 1

                         Standard orientation:
 ---------------------------------------------------------------------
 Center     Atomic     Atomic              Coordinates (Angstroms)
 Number     Number      Type              X           Y           Z
 ---------------------------------------------------------------------
    1          8             0        2.029192   -1.288730   -0.594324
    2          8             0        2.014691    1.286820   -0.592419
    3          8             0       -1.275518   -0.007906   -0.365979
    4          8             0        0.506810    0.008378    2.070380
    5         15             0        2.782692    0.003647   -0.954907
    6         20             0       -0.023945    1.589370    0.501217
    7         20             0       -3.427728   -0.007171   -0.641024
    8         20             0       -0.004965   -1.585430    0.511579
    9          1             0        1.190992    0.021417    2.746850
 ---------------------------------------------------------------------

 SCF Done:  E(RB+HF-LYP) =  -2675.78821398     A.U. after   10 cycles

 The electronic state is 1-A.
 Alpha  occ. eigenvalues -- -145.33803-145.33759-145.33640 -77.15013 -19.13099
 Alpha  occ. eigenvalues --  -19.12937 -19.08590 -19.02797 -15.40945 -15.40902
 Alpha  occ. eigenvalues --  -15.40843 -12.54133 -12.54089 -12.54083 -12.54044
 Alpha  occ. eigenvalues --  -12.54041 -12.54026 -12.54021 -12.54002 -12.53860
 Alpha  occ. eigenvalues --   -6.60716  -4.77153  -4.76921  -4.76506  -1.78582
 Alpha  occ. eigenvalues --   -1.78469  -1.78313  -1.07091  -1.06392  -1.06241
 Alpha  occ. eigenvalues --   -1.06210  -1.05940  -1.05929  -1.05761  -1.05526
 Alpha  occ. eigenvalues --   -1.05278  -0.98973  -0.93768  -0.89991  -0.77990
 Alpha  occ. eigenvalues --   -0.52483  -0.41905  -0.41672  -0.38183  -0.37900
 Alpha  occ. eigenvalues --   -0.30637  -0.29324  -0.28043  -0.26781  -0.25461
 Alpha  occ. eigenvalues --   -0.24009  -0.23660  -0.21771  -0.12073
 Alpha virt. eigenvalues --   -0.06683  -0.06655  -0.04988  -0.02068  -0.01889
 Alpha virt. eigenvalues --   -0.00433   0.00740   0.00831   0.02076   0.02164
 Alpha virt. eigenvalues --    0.04585   0.04690   0.06393   0.09622   0.10342

 Mulliken atomic charges:
              1
     1  O   -0.662516
     2  O   -0.659034
     3  O   -0.939521
     4  O   -0.835745
     5  P    0.721807
     6  Ca   1.029778
     7  Ca   0.030511
     8  Ca   1.031154
     9  H    0.283565
 Sum of Mulliken charges=   0.00000

 Dipole moment (field-independent basis, Debye):
    X=     1.8425    Y=    -0.0005    Z=     2.6152  Tot=     3.1991
 Quadrupole moment (field-independent basis, Debye-Ang):
   XX=  -111.3500   YY=   -74.5196   ZZ=   -91.7752
   XY=     0.0914   XZ=     5.5459   YZ=    -0.0799

 Normal termination of Gaussian 03 at Mon May  4 20:10:26 2015.
