 Gaussian 03, Revision E.01,
 Gaussian 03:  EM64T-G03RevE.01 11-Sep-2007

 -------------------------------------
 # b3lyp/6-31G(d,p) pop=(ReadRadii,MK)
 -------------------------------------

 ---------
 Ca3PO4_12
 ---------
 Symbolic Z-matrix:
 Charge =  0 Multiplicity = 1

                         Standard orientation:
 ---------------------------------------------------------------------
 Center     Atomic     Atomic              Coordinates (Angstroms)
 Number     Number      Type              X           Y           Z
 ---------------------------------------------------------------------
    1          8             0        1.477209    0.492103    1.234219
    2          8             0        2.629399   -1.419380    0.004777
    3          8             0        1.483309    0.491099   -1.231981
    4          8             0       -1.496551    0.005241   -0.005663
    5         15             0        2.578709    0.168625    0.004431
    6         20             0        0.009641    1.686391   -0.002857
    7         20             0        0.346216   -1.364599   -0.005147
    8         20             0       -3.639911   -0.257046    0.004888
    9          1             0       -5.746471   -0.376799   -0.014991
 ---------------------------------------------------------------------

 SCF Done:  E(RB+HF-LYP) =  -2675.73664270     A.U. after    9 cycles

 The electronic state is 1-A.
 Alpha  occ. eigenvalues -- -145.37690-145.34822-145.33316 -77.08566 -19.05983
 Alpha  occ. eigenvalues --  -19.05079 -19.05075 -19.03982 -15.45065 -15.41939
 Alpha  occ. eigenvalues --  -15.40427 -12.58299 -12.58288 -12.57961 -12.55119
 Alpha  occ. eigenvalues --  -12.55094 -12.55027 -12.53639 -12.53623 -12.53453
 Alpha  occ. eigenvalues --   -6.53842  -4.70185  -4.70146  -4.69766  -1.82863
 Alpha  occ. eigenvalues --   -1.79564  -1.78007  -1.10986  -1.10898  -1.09326
 Alpha  occ. eigenvalues --   -1.07932  -1.07071  -1.06949  -1.05970  -1.05631
 Alpha  occ. eigenvalues --   -1.05045  -0.90940  -0.84190  -0.83508  -0.80791
 Alpha  occ. eigenvalues --   -0.45505  -0.33571  -0.33022  -0.32484  -0.27942
 Alpha  occ. eigenvalues --   -0.27006  -0.26037  -0.25593  -0.24141  -0.23198
 Alpha  occ. eigenvalues --   -0.21987  -0.21011  -0.19508  -0.15202
 Alpha virt. eigenvalues --   -0.09406  -0.07410  -0.04934  -0.03599  -0.03043
 Alpha virt. eigenvalues --   -0.00080   0.01446   0.01716   0.02739   0.04023
 Alpha virt. eigenvalues --    0.04396   0.06909   0.06964   0.10418   0.11593

 Mulliken atomic charges:
              1
     1  O   -0.809503
     2  O   -0.729598
     3  O   -0.810058
     4  O   -0.968459
     5  P    0.978700
     6  Ca   0.981282
     7  Ca   0.809021
     8  Ca   0.812835
     9  H   -0.264220
 Sum of Mulliken charges=   0.00000

 Dipole moment (field-independent basis, Debye):
    X=    -8.4655    Y=     2.4635    Z=     0.0382  Tot=     8.8168
 Quadrupole moment (field-independent basis, Debye-Ang):
   XX=  -138.1056   YY=   -56.8426   ZZ=   -89.3946
   XY=     2.3504   XZ=    -0.3987   YZ=     0.0038

 Normal termination of Gaussian 03 at Mon May  4 20:09:57 2015.
