 Gaussian 03, Revision E.01,
 Gaussian 03:  EM64T-G03RevE.01 11-Sep-2007

 -------------------------------------
 # b3lyp/6-31G(d,p) pop=(ReadRadii,MK)
 -------------------------------------

 ----------
 Ca3PO4_217
 ----------
 Symbolic Z-matrix:
 Charge =  0 Multiplicity = 1

                         Standard orientation:
 ---------------------------------------------------------------------
 Center     Atomic     Atomic              Coordinates (Angstroms)
 Number     Number      Type              X           Y           Z
 ---------------------------------------------------------------------
    1          8             0       -2.195950    0.828120   -0.192242
    2          8             0       -3.099940   -1.468630    0.155303
    3          8             0        0.817262    0.071781    0.278430
    4          8             0        5.013190   -0.599783   -0.149545
    5         15             0       -3.495120    0.010156    0.041587
    6         20             0        2.996520   -0.121105    0.111918
    7         20             0       -0.731894   -1.413700   -0.129050
    8         20             0       -0.153351    2.036330   -0.035038
    9          1             0        5.924790   -0.834755   -0.315977
 ---------------------------------------------------------------------

 SCF Done:  E(RB+HF-LYP) =  -2675.75140796     A.U. after   13 cycles

 The electronic state is 1-A.
 Alpha  occ. eigenvalues -- -145.36671-145.35611-145.31854 -77.17964 -19.16214
 Alpha  occ. eigenvalues --  -19.15607 -19.05265 -19.03440 -15.43818 -15.42776
 Alpha  occ. eigenvalues --  -15.39176 -12.57044 -12.56990 -12.56843 -12.55980
 Alpha  occ. eigenvalues --  -12.55905 -12.55849 -12.52408 -12.52406 -12.52095
 Alpha  occ. eigenvalues --   -6.63779  -4.80216  -4.79969  -4.79556  -1.81317
 Alpha  occ. eigenvalues --   -1.80249  -1.77018  -1.09294  -1.09157  -1.08622
 Alpha  occ. eigenvalues --   -1.07956  -1.07884  -1.07367  -1.05073  -1.05069
 Alpha  occ. eigenvalues --   -1.04229  -1.02216  -0.96480  -0.84592  -0.80171
 Alpha  occ. eigenvalues --   -0.55399  -0.44329  -0.41789  -0.41135  -0.36997
 Alpha  occ. eigenvalues --   -0.33287  -0.32099  -0.29712  -0.26109  -0.25679
 Alpha  occ. eigenvalues --   -0.24242  -0.21105  -0.21045  -0.12518
 Alpha virt. eigenvalues --   -0.08307  -0.08149  -0.04674  -0.03306  -0.01714
 Alpha virt. eigenvalues --   -0.01293  -0.00913   0.00863   0.01762   0.02412
 Alpha virt. eigenvalues --    0.03397   0.04212   0.06288   0.07555   0.09279

 Mulliken atomic charges:
              1
     1  O   -0.688783
     2  O   -0.631311
     3  O   -0.915808
     4  O   -0.809417
     5  P    0.756521
     6  Ca   0.984181
     7  Ca   0.597878
     8  Ca   0.439938
     9  H    0.266802
 Sum of Mulliken charges=   0.00000

 Dipole moment (field-independent basis, Debye):
    X=    -3.1333    Y=    -0.6560    Z=     0.4889  Tot=     3.2384
 Quadrupole moment (field-independent basis, Debye-Ang):
   XX=  -111.0733   YY=   -92.0591   ZZ=   -89.6070
   XY=    -2.1637   XZ=     2.1986   YZ=     1.2232

 Normal termination of Gaussian 03 at Mon May  4 20:11:54 2015.
