 Gaussian 03, Revision E.01,
 Gaussian 03:  EM64T-G03RevE.01 11-Sep-2007

 -------------------------------------
 # b3lyp/6-31G(d,p) pop=(ReadRadii,MK)
 -------------------------------------

 ----------
 Ca3PO4_176
 ----------
 Symbolic Z-matrix:
 Charge =  0 Multiplicity = 1

                         Standard orientation:
 ---------------------------------------------------------------------
 Center     Atomic     Atomic              Coordinates (Angstroms)
 Number     Number      Type              X           Y           Z
 ---------------------------------------------------------------------
    1          8             0       -0.733158    1.263630   -0.596673
    2          8             0       -0.699349   -1.257200   -0.599197
    3          8             0        1.465990    0.006629    1.101750
    4          8             0       -2.732300   -0.087950    0.197036
    5         15             0       -1.536360   -0.012431   -1.188090
    6         20             0        1.541483    1.733866   -0.320915
    7         20             0       -0.721083   -0.025706    1.513650
    8         20             0        1.581977   -1.698234   -0.345600
    9          1             0       -3.411599    0.587050    0.055278
 ---------------------------------------------------------------------

 SCF Done:  E(RB+HF-LYP) =  -2675.76126173     A.U. after   10 cycles

 The electronic state is 1-A.
 Alpha  occ. eigenvalues -- -145.34973-145.34926-145.34890 -77.14136 -19.14752
 Alpha  occ. eigenvalues --  -19.09509 -19.09476 -19.03076 -15.42064 -15.42034
 Alpha  occ. eigenvalues --  -15.41998 -12.55278 -12.55258 -12.55242 -12.55223
 Alpha  occ. eigenvalues --  -12.55151 -12.55119 -12.55115 -12.55113 -12.55084
 Alpha  occ. eigenvalues --   -6.59368  -4.75828  -4.75634  -4.75125  -1.79646
 Alpha  occ. eigenvalues --   -1.79454  -1.79402  -1.08060  -1.07554  -1.07446
 Alpha  occ. eigenvalues --   -1.07266  -1.07158  -1.06800  -1.06770  -1.06364
 Alpha  occ. eigenvalues --   -1.06275  -0.99132  -0.93641  -0.89565  -0.77907
 Alpha  occ. eigenvalues --   -0.54620  -0.46571  -0.39536  -0.38639  -0.35864
 Alpha  occ. eigenvalues --   -0.32463  -0.30293  -0.27775  -0.25525  -0.23701
 Alpha  occ. eigenvalues --   -0.23313  -0.22488  -0.20352  -0.12001
 Alpha virt. eigenvalues --   -0.07303  -0.07027  -0.02907  -0.01991  -0.00552
 Alpha virt. eigenvalues --    0.00283   0.01002   0.01556   0.01736   0.03886
 Alpha virt. eigenvalues --    0.04110   0.05234   0.06892   0.09086   0.10246

 Mulliken atomic charges:
              1
     1  O   -0.810400
     2  O   -0.808671
     3  O   -0.904785
     4  O   -0.704382
     5  P    0.968125
     6  Ca   0.617921
     7  Ca   0.737323
     8  Ca   0.583363
     9  H    0.321505
 Sum of Mulliken charges=   0.00000

 Dipole moment (field-independent basis, Debye):
    X=    -1.8014    Y=     0.7334    Z=     3.9225  Tot=     4.3782
 Quadrupole moment (field-independent basis, Debye-Ang):
   XX=   -96.7059   YY=   -84.6808   ZZ=   -89.9233
   XY=    -4.3541   XZ=   -10.1448   YZ=     0.0133

 Normal termination of Gaussian 03 at Mon May  4 20:11:05 2015.
