 Gaussian 03, Revision E.01,
 Gaussian 03:  EM64T-G03RevE.01 11-Sep-2007

 -------------------------------------
 # b3lyp/6-31G(d,p) pop=(ReadRadii,MK)
 -------------------------------------

 ----------
 Ca3PO4_219
 ----------
 Symbolic Z-matrix:
 Charge =  0 Multiplicity = 1

                         Standard orientation:
 ---------------------------------------------------------------------
 Center     Atomic     Atomic              Coordinates (Angstroms)
 Number     Number      Type              X           Y           Z
 ---------------------------------------------------------------------
    1          8             0       -3.101070   -1.466618    0.151757
    2          8             0       -2.195049    0.829623   -0.194812
    3          8             0        0.817058    0.070359    0.283086
    4          8             0        5.009300   -0.601908   -0.168341
    5         15             0       -3.495190    0.012293    0.035177
    6         20             0        2.996730   -0.121743    0.122124
    7         20             0       -0.151177    2.035421   -0.034760
    8         20             0       -0.732352   -1.415069   -0.124189
    9          1             0        5.921900   -0.808230   -0.364687
 ---------------------------------------------------------------------

 SCF Done:  E(RB+HF-LYP) =  -2675.75141832     A.U. after   13 cycles

 The electronic state is 1-A.
 Alpha  occ. eigenvalues -- -145.36676-145.35605-145.31861 -77.17960 -19.16209
 Alpha  occ. eigenvalues --  -19.15603 -19.05267 -19.03446 -15.43824 -15.42771
 Alpha  occ. eigenvalues --  -15.39183 -12.57049 -12.56996 -12.56848 -12.55974
 Alpha  occ. eigenvalues --  -12.55899 -12.55843 -12.52415 -12.52412 -12.52102
 Alpha  occ. eigenvalues --   -6.63775  -4.80211  -4.79964  -4.79551  -1.81322
 Alpha  occ. eigenvalues --   -1.80243  -1.77024  -1.09297  -1.09161  -1.08625
 Alpha  occ. eigenvalues --   -1.07951  -1.07879  -1.07363  -1.05081  -1.05074
 Alpha  occ. eigenvalues --   -1.04233  -1.02213  -0.96476  -0.84595  -0.80173
 Alpha  occ. eigenvalues --   -0.55395  -0.44326  -0.41784  -0.41131  -0.36998
 Alpha  occ. eigenvalues --   -0.33283  -0.32094  -0.29708  -0.26110  -0.25682
 Alpha  occ. eigenvalues --   -0.24243  -0.21107  -0.21052  -0.12514
 Alpha virt. eigenvalues --   -0.08304  -0.08146  -0.04680  -0.03304  -0.01715
 Alpha virt. eigenvalues --   -0.01292  -0.00909   0.00833   0.01782   0.02411
 Alpha virt. eigenvalues --    0.03407   0.04208   0.06287   0.07558   0.09283

 Mulliken atomic charges:
              1
     1  O   -0.631447
     2  O   -0.688610
     3  O   -0.915891
     4  O   -0.809222
     5  P    0.756393
     6  Ca   0.984504
     7  Ca   0.439335
     8  Ca   0.598047
     9  H    0.266890
 Sum of Mulliken charges=   0.00000

 Dipole moment (field-independent basis, Debye):
    X=    -3.1235    Y=    -0.6264    Z=     0.5088  Tot=     3.2261
 Quadrupole moment (field-independent basis, Debye-Ang):
   XX=  -111.0114   YY=   -92.1658   ZZ=   -89.5460
   XY=    -1.8756   XZ=     2.2244   YZ=     1.1864

 Normal termination of Gaussian 03 at Mon May  4 20:11:57 2015.
