 Gaussian 03, Revision E.01,
 Gaussian 03:  EM64T-G03RevE.01 11-Sep-2007

 -------------------------------------
 # b3lyp/6-31G(d,p) pop=(ReadRadii,MK)
 -------------------------------------

 ---------
 Ca3PO4_31
 ---------
 Symbolic Z-matrix:
 Charge =  0 Multiplicity = 1

                         Standard orientation:
 ---------------------------------------------------------------------
 Center     Atomic     Atomic              Coordinates (Angstroms)
 Number     Number      Type              X           Y           Z
 ---------------------------------------------------------------------
    1          8             0        1.302600    0.201420    1.043460
    2          8             0       -1.385117   -2.241622   -0.192433
    3          8             0       -0.166530   -1.343670   -0.177423
    4          8             0       -1.503612    1.860988   -0.306647
    5         15             0        0.144107   -0.847269    1.462590
    6         20             0       -2.222490   -0.133028   -0.455780
    7         20             0        2.216711   -0.749755   -0.970611
    8         20             0        0.553186    2.228040    0.090792
    9          1             0        0.911516   -2.013029    1.837460
 ---------------------------------------------------------------------

 SCF Done:  E(RB+HF-LYP) =  -2675.56254820     A.U. after   12 cycles

 The electronic state is 1-A.
 Alpha  occ. eigenvalues -- -145.37352-145.34421-145.34191 -77.14013 -19.18917
 Alpha  occ. eigenvalues --  -19.12089 -19.11793 -19.00115 -15.44451 -15.41546
 Alpha  occ. eigenvalues --  -15.41383 -12.57633 -12.57598 -12.57533 -12.54771
 Alpha  occ. eigenvalues --  -12.54701 -12.54621 -12.54592 -12.54589 -12.54355
 Alpha  occ. eigenvalues --   -6.59952  -4.76420  -4.76143  -4.75667  -1.81698
 Alpha  occ. eigenvalues --   -1.79078  -1.79053  -1.09332  -1.09144  -1.09044
 Alpha  occ. eigenvalues --   -1.07951  -1.07083  -1.06973  -1.06749  -1.06417
 Alpha  occ. eigenvalues --   -1.05798  -1.02181  -0.94649  -0.79829  -0.74197
 Alpha  occ. eigenvalues --   -0.57738  -0.44158  -0.42084  -0.41787  -0.36347
 Alpha  occ. eigenvalues --   -0.34264  -0.30860  -0.24214  -0.22726  -0.22189
 Alpha  occ. eigenvalues --   -0.20072  -0.18592  -0.18271  -0.12918
 Alpha virt. eigenvalues --   -0.07242  -0.06421  -0.03107  -0.01655  -0.00789
 Alpha virt. eigenvalues --   -0.00200   0.00374   0.01380   0.02024   0.02308
 Alpha virt. eigenvalues --    0.03692   0.04560   0.05852   0.06229   0.06794

 Mulliken atomic charges:
              1
     1  O   -0.800698
     2  O   -0.479647
     3  O   -0.539534
     4  O   -0.906908
     5  P    0.718683
     6  Ca   1.078556
     7  Ca   0.309193
     8  Ca   0.710413
     9  H   -0.090058
 Sum of Mulliken charges=   0.00000

 Dipole moment (field-independent basis, Debye):
    X=    -2.8242    Y=     0.9332    Z=     0.6876  Tot=     3.0528
 Quadrupole moment (field-independent basis, Debye-Ang):
   XX=   -80.6860   YY=   -94.6596   ZZ=   -92.8634
   XY=     4.7026   XZ=     8.1881   YZ=     5.4761

 Normal termination of Gaussian 03 at Mon May  4 20:12:15 2015.
