 Gaussian 03, Revision E.01,
 Gaussian 03:  EM64T-G03RevE.01 11-Sep-2007

 -------------------------------------
 # b3lyp/6-31G(d,p) pop=(ReadRadii,MK)
 -------------------------------------

 ----------
 Ca3PO4_113
 ----------
 Symbolic Z-matrix:
 Charge =  0 Multiplicity = 1

                         Standard orientation:
 ---------------------------------------------------------------------
 Center     Atomic     Atomic              Coordinates (Angstroms)
 Number     Number      Type              X           Y           Z
 ---------------------------------------------------------------------
    1          8             0        0.717028   -2.076869   -0.765081
    2          8             0        2.863427    1.581884   -0.105924
    3          8             0        0.701138   -2.053449    0.808716
    4          8             0        1.364777    1.618752    0.022139
    5         15             0       -2.971882    0.578327   -0.136478
    6         20             0       -0.663562    2.192489    0.045337
    7         20             0       -1.360299   -1.776232   -0.004101
    8         20             0        2.153240   -0.509395    0.012681
    9          1             0       -3.180312    0.625299    1.290030
 ---------------------------------------------------------------------

 SCF Done:  E(RB+HF-LYP) =  -2675.51382749     A.U. after    8 cycles

 The electronic state is 1-A.
 Alpha  occ. eigenvalues -- -145.37005-145.34986-145.30313 -76.99549 -19.09738
 Alpha  occ. eigenvalues --  -19.09715 -19.08712 -19.05261 -15.44191 -15.42193
 Alpha  occ. eigenvalues --  -15.37581 -12.57404 -12.57388 -12.57194 -12.55410
 Alpha  occ. eigenvalues --  -12.55377 -12.55198 -12.50798 -12.50791 -12.50555
 Alpha  occ. eigenvalues --   -6.46793  -4.63030  -4.62789  -4.62713  -1.81736
 Alpha  occ. eigenvalues --   -1.79829  -1.75458  -1.09578  -1.09552  -1.08700
 Alpha  occ. eigenvalues --   -1.07950  -1.07545  -1.07208  -1.03849  -1.03496
 Alpha  occ. eigenvalues --   -1.03423  -0.92308  -0.90514  -0.73703  -0.69765
 Alpha  occ. eigenvalues --   -0.52468  -0.33374  -0.32971  -0.32150  -0.30601
 Alpha  occ. eigenvalues --   -0.29022  -0.28436  -0.28260  -0.21144  -0.18544
 Alpha  occ. eigenvalues --   -0.18376  -0.17380  -0.15959  -0.14027
 Alpha virt. eigenvalues --   -0.07292  -0.05121  -0.03022  -0.01830  -0.00629
 Alpha virt. eigenvalues --    0.00205   0.02085   0.02455   0.03852   0.04078
 Alpha virt. eigenvalues --    0.05151   0.05463   0.06332   0.07751   0.09574

 Mulliken atomic charges:
              1
     1  O   -0.596792
     2  O   -0.520946
     3  O   -0.594403
     4  O   -0.634082
     5  P   -0.722523
     6  Ca   0.934988
     7  Ca   0.947766
     8  Ca   1.226631
     9  H   -0.040640
 Sum of Mulliken charges=   0.00000

 Dipole moment (field-independent basis, Debye):
    X=    -0.1327    Y=    -1.3777    Z=     0.9296  Tot=     1.6673
 Quadrupole moment (field-independent basis, Debye-Ang):
   XX=  -106.1793   YY=   -69.7061   ZZ=   -81.1351
   XY=    -3.0564   XZ=    -2.1563   YZ=     1.6051

 Normal termination of Gaussian 03 at Mon May  4 20:09:25 2015.
