 Gaussian 03, Revision E.01,
 Gaussian 03:  EM64T-G03RevE.01 11-Sep-2007

 -------------------------------------
 # b3lyp/6-31G(d,p) pop=(ReadRadii,MK)
 -------------------------------------

 ---------
 Ca3PO4_72
 ---------
 Symbolic Z-matrix:
 Charge =  0 Multiplicity = 1

                         Standard orientation:
 ---------------------------------------------------------------------
 Center     Atomic     Atomic              Coordinates (Angstroms)
 Number     Number      Type              X           Y           Z
 ---------------------------------------------------------------------
    1          8             0        1.873338   -1.556314   -0.830435
    2          8             0       -0.882624    1.015720   -0.480780
    3          8             0       -2.416842   -1.541918    0.407375
    4          8             0        1.541730    0.013466    1.307890
    5         15             0        2.769740   -0.456305   -0.149140
    6         20             0       -2.960589    0.455772   -0.065423
    7         20             0        1.026273    1.956007   -0.054955
    8         20             0       -0.283467   -1.225171   -0.036537
    9          1             0        1.884760   -0.335206    2.142980
 ---------------------------------------------------------------------

 SCF Done:  E(RB+HF-LYP) =  -2675.67956230     A.U. after   14 cycles

 The electronic state is 1-A.
 Alpha  occ. eigenvalues -- -145.34227-145.32832-145.28081 -77.09241 -19.15443
 Alpha  occ. eigenvalues --  -19.08730 -19.01677 -18.98214 -15.41396 -15.39971
 Alpha  occ. eigenvalues --  -15.35316 -12.54599 -12.54560 -12.54436 -12.53190
 Alpha  occ. eigenvalues --  -12.53118 -12.53008 -12.48552 -12.48481 -12.48324
 Alpha  occ. eigenvalues --   -6.55382  -4.71964  -4.71405  -4.71084  -1.78953
 Alpha  occ. eigenvalues --   -1.77618  -1.73161  -1.06860  -1.06661  -1.06059
 Alpha  occ. eigenvalues --   -1.05601  -1.05220  -1.04582  -1.01426  -1.00909
 Alpha  occ. eigenvalues --   -1.00790  -0.97441  -0.91158  -0.76498  -0.71836
 Alpha  occ. eigenvalues --   -0.53439  -0.45747  -0.37196  -0.35269  -0.30653
 Alpha  occ. eigenvalues --   -0.29003  -0.26221  -0.22906  -0.21790  -0.20537
 Alpha  occ. eigenvalues --   -0.17330  -0.15811  -0.15685  -0.12633
 Alpha virt. eigenvalues --   -0.08084  -0.06878  -0.02054  -0.01033  -0.00656
 Alpha virt. eigenvalues --    0.00482   0.01544   0.01584   0.02379   0.03755
 Alpha virt. eigenvalues --    0.03788   0.05664   0.06255   0.07467   0.09623

 Mulliken atomic charges:
              1
     1  O   -0.690759
     2  O   -0.963639
     3  O   -0.873964
     4  O   -0.754206
     5  P    0.369190
     6  Ca   0.866957
     7  Ca   0.794593
     8  Ca   0.917277
     9  H    0.334552
 Sum of Mulliken charges=   0.00000

 Dipole moment (field-independent basis, Debye):
    X=    -3.8608    Y=     7.0108    Z=     1.8481  Tot=     8.2142
 Quadrupole moment (field-independent basis, Debye-Ang):
   XX=   -79.1970   YY=   -86.5331   ZZ=   -81.0369
   XY=   -13.0007   XZ=    10.1047   YZ=     2.9026

 Normal termination of Gaussian 03 at Mon May  4 20:13:28 2015.
