 Gaussian 03, Revision E.01,
 Gaussian 03:  EM64T-G03RevE.01 11-Sep-2007

 -------------------------------------
 # b3lyp/6-31G(d,p) pop=(ReadRadii,MK)
 -------------------------------------

 ----------
 Ca3PO4_157
 ----------
 Symbolic Z-matrix:
 Charge =  0 Multiplicity = 1

                         Standard orientation:
 ---------------------------------------------------------------------
 Center     Atomic     Atomic              Coordinates (Angstroms)
 Number     Number      Type              X           Y           Z
 ---------------------------------------------------------------------
    1          8             0       -2.484241    0.277244    0.307592
    2          8             0        0.252749    0.963077    1.211689
    3          8             0        0.201969   -1.304880   -0.602378
    4          8             0       -2.889260   -0.216540   -1.043981
    5         15             0        1.631817    1.665703    0.587006
    6         20             0        2.377361   -0.959631   -0.620298
    7         20             0       -0.815100   -1.018751    1.330189
    8         20             0       -0.629565    0.833775   -1.044201
    9          1             0       -3.780931    0.155402   -1.102241
 ---------------------------------------------------------------------

 SCF Done:  E(RB+HF-LYP) =  -2675.57396295     A.U. after   12 cycles

 The electronic state is 1-A.
 Alpha  occ. eigenvalues -- -145.34919-145.33672-145.32660 -77.03513 -19.19966
 Alpha  occ. eigenvalues --  -19.13512 -19.07304 -19.01577 -15.41980 -15.40842
 Alpha  occ. eigenvalues --  -15.39753 -12.55161 -12.55129 -12.55100 -12.54041
 Alpha  occ. eigenvalues --  -12.54010 -12.53869 -12.52931 -12.52908 -12.52871
 Alpha  occ. eigenvalues --   -6.49971  -4.66322  -4.66103  -4.65749  -1.79490
 Alpha  occ. eigenvalues --   -1.78352  -1.77313  -1.08274  -1.07290  -1.06821
 Alpha  occ. eigenvalues --   -1.06363  -1.06154  -1.05826  -1.05350  -1.04954
 Alpha  occ. eigenvalues --   -1.04572  -1.03293  -0.87956  -0.81963  -0.76474
 Alpha  occ. eigenvalues --   -0.49414  -0.47667  -0.40739  -0.38042  -0.30667
 Alpha  occ. eigenvalues --   -0.29449  -0.28547  -0.26329  -0.23446  -0.22209
 Alpha  occ. eigenvalues --   -0.21834  -0.19535  -0.12646  -0.11903
 Alpha virt. eigenvalues --   -0.07953  -0.06181  -0.04517  -0.01853  -0.00169
 Alpha virt. eigenvalues --    0.00158   0.00844   0.01347   0.02260   0.02930
 Alpha virt. eigenvalues --    0.04084   0.05674   0.06134   0.07596   0.09028

 Mulliken atomic charges:
              1
     1  O   -0.556790
     2  O   -0.795566
     3  O   -0.931101
     4  O   -0.385245
     5  P   -0.080235
     6  Ca   0.541696
     7  Ca   0.918184
     8  Ca   0.945624
     9  H    0.343433
 Sum of Mulliken charges=   0.00000

 Dipole moment (field-independent basis, Debye):
    X=    -4.0663    Y=    -4.5066    Z=     0.1359  Tot=     6.0715
 Quadrupole moment (field-independent basis, Debye-Ang):
   XX=   -84.9593   YY=   -91.7152   ZZ=   -76.3214
   XY=    -9.4861   XZ=    -3.7080   YZ=   -18.0059

 Normal termination of Gaussian 03 at Mon May  4 20:10:42 2015.
