 Gaussian 03, Revision E.01,
 Gaussian 03:  EM64T-G03RevE.01 11-Sep-2007

 -------------------------------------
 # b3lyp/6-31G(d,p) pop=(ReadRadii,MK)
 -------------------------------------

 ---------
 Ca3PO4_54
 ---------
 Symbolic Z-matrix:
 Charge =  0 Multiplicity = 1

                         Standard orientation:
 ---------------------------------------------------------------------
 Center     Atomic     Atomic              Coordinates (Angstroms)
 Number     Number      Type              X           Y           Z
 ---------------------------------------------------------------------
    1          8             0        1.684899    0.177593    1.029540
    2          8             0       -1.041761    0.285992   -0.785042
    3          8             0       -1.299571    0.620467    0.713858
    4          8             0        1.943789   -1.477118   -0.906217
    5         15             0        2.761479    0.021808   -0.220827
    6         20             0        0.527958    1.846701   -0.092537
    7         20             0       -3.270491   -0.233835   -0.211601
    8         20             0        0.025158   -1.365369    0.503658
    9          1             0        2.626460   -2.132528   -1.095090
 ---------------------------------------------------------------------

 SCF Done:  E(RB+HF-LYP) =  -2675.62300877     A.U. after   14 cycles

 The electronic state is 1-A.
 Alpha  occ. eigenvalues -- -145.36381-145.35668-145.35574 -77.09112 -19.15554
 Alpha  occ. eigenvalues --  -19.14310 -19.14275 -19.09334 -15.43492 -15.42822
 Alpha  occ. eigenvalues --  -15.42669 -12.56694 -12.56638 -12.56588 -12.56011
 Alpha  occ. eigenvalues --  -12.55972 -12.55880 -12.55855 -12.55823 -12.55780
 Alpha  occ. eigenvalues --   -6.55164  -4.71733  -4.71288  -4.70780  -1.80968
 Alpha  occ. eigenvalues --   -1.80194  -1.80147  -1.09898  -1.08798  -1.08478
 Alpha  occ. eigenvalues --   -1.07939  -1.07868  -1.07666  -1.07626  -1.07574
 Alpha  occ. eigenvalues --   -1.07359  -0.98741  -0.97438  -0.90789  -0.78125
 Alpha  occ. eigenvalues --   -0.54616  -0.45970  -0.38306  -0.37978  -0.37469
 Alpha  occ. eigenvalues --   -0.36497  -0.35351  -0.30949  -0.29459  -0.26803
 Alpha  occ. eigenvalues --   -0.25316  -0.23820  -0.13440  -0.12578
 Alpha virt. eigenvalues --   -0.07864  -0.06900  -0.03632  -0.02527  -0.00662
 Alpha virt. eigenvalues --   -0.00469   0.00251   0.01104   0.02101   0.03079
 Alpha virt. eigenvalues --    0.03599   0.04155   0.05287   0.06065   0.08478

 Mulliken atomic charges:
              1
     1  O   -0.812921
     2  O   -0.596552
     3  O   -0.590363
     4  O   -0.710613
     5  P    0.307937
     6  Ca   0.916747
     7  Ca   0.304604
     8  Ca   0.846609
     9  H    0.334552
 Sum of Mulliken charges=   0.00000

 Dipole moment (field-independent basis, Debye):
    X=     0.4033    Y=     2.1911    Z=     0.2368  Tot=     2.2404
 Quadrupole moment (field-independent basis, Debye-Ang):
   XX=  -112.9840   YY=   -74.8837   ZZ=   -95.2208
   XY=   -11.1534   XZ=    -0.3384   YZ=    -0.3544

 Normal termination of Gaussian 03 at Mon May  4 20:12:56 2015.
