 Gaussian 03, Revision E.01,
 Gaussian 03:  EM64T-G03RevE.01 11-Sep-2007

 -------------------------------------
 # b3lyp/6-31G(d,p) pop=(ReadRadii,MK)
 -------------------------------------

 ----------
 Ca3PO4_175
 ----------
 Symbolic Z-matrix:
 Charge =  0 Multiplicity = 1

                         Standard orientation:
 ---------------------------------------------------------------------
 Center     Atomic     Atomic              Coordinates (Angstroms)
 Number     Number      Type              X           Y           Z
 ---------------------------------------------------------------------
    1          8             0       -0.074129    0.834458    1.229980
    2          8             0        2.047211   -0.329119   -0.522867
    3          8             0       -0.203243   -1.488480   -0.644699
    4          8             0       -3.945049    0.181204   -0.155729
    5         15             0        0.933676   -0.844500   -1.588040
    6         20             0        0.965783   -1.106890    1.417770
    7         20             0        1.305471    1.890639   -0.148883
    8         20             0       -1.856429    0.159799   -0.031207
    9          1             0       -4.899949    0.212041   -0.186490
 ---------------------------------------------------------------------

 SCF Done:  E(RB+HF-LYP) =  -2675.74368903     A.U. after   11 cycles

 The electronic state is 1-A.
 Alpha  occ. eigenvalues -- -145.36779-145.36515-145.30581 -77.13560 -19.12511
 Alpha  occ. eigenvalues --  -19.12286 -19.03999 -19.02638 -15.43874 -15.43617
 Alpha  occ. eigenvalues --  -15.37822 -12.57071 -12.57010 -12.56977 -12.56836
 Alpha  occ. eigenvalues --  -12.56753 -12.56694 -12.51085 -12.50991 -12.50808
 Alpha  occ. eigenvalues --   -6.59351  -4.75663  -4.75567  -4.75208  -1.81394
 Alpha  occ. eigenvalues --   -1.81046  -1.75607  -1.09514  -1.09206  -1.08813
 Alpha  occ. eigenvalues --   -1.08763  -1.08499  -1.07981  -1.03886  -1.03517
 Alpha  occ. eigenvalues --   -1.02977  -0.97007  -0.92020  -0.83737  -0.78769
 Alpha  occ. eigenvalues --   -0.52858  -0.40491  -0.38774  -0.37600  -0.36031
 Alpha  occ. eigenvalues --   -0.31427  -0.28962  -0.27431  -0.24464  -0.24086
 Alpha  occ. eigenvalues --   -0.21970  -0.20340  -0.20161  -0.13148
 Alpha virt. eigenvalues --   -0.09081  -0.08600  -0.03827  -0.01944  -0.01461
 Alpha virt. eigenvalues --   -0.00739  -0.00082   0.01950   0.02683   0.03326
 Alpha virt. eigenvalues --    0.04403   0.04990   0.07199   0.08008   0.08938

 Mulliken atomic charges:
              1
     1  O   -0.927744
     2  O   -0.772163
     3  O   -0.757641
     4  O   -0.819951
     5  P    0.598416
     6  Ca   0.914353
     7  Ca   0.653665
     8  Ca   0.844887
     9  H    0.266178
 Sum of Mulliken charges=   0.00000

 Dipole moment (field-independent basis, Debye):
    X=     4.5995    Y=    -0.0694    Z=     3.0811  Tot=     5.5366
 Quadrupole moment (field-independent basis, Debye-Ang):
   XX=   -98.5058   YY=   -81.7116   ZZ=   -89.7202
   XY=     3.6615   XZ=     6.3322   YZ=    -9.6363

 Normal termination of Gaussian 03 at Mon May  4 20:11:04 2015.
