 Gaussian 03, Revision E.01,
 Gaussian 03:  EM64T-G03RevE.01 11-Sep-2007

 -------------------------------------
 # b3lyp/6-31G(d,p) pop=(ReadRadii,MK)
 -------------------------------------

 ---------
 Ca3PO4_91
 ---------
 Symbolic Z-matrix:
 Charge =  0 Multiplicity = 1

                         Standard orientation:
 ---------------------------------------------------------------------
 Center     Atomic     Atomic              Coordinates (Angstroms)
 Number     Number      Type              X           Y           Z
 ---------------------------------------------------------------------
    1          8             0       -0.684260   -0.004051    2.401940
    2          8             0       -0.643551    1.252680    0.093493
    3          8             0       -0.641125   -1.253920    0.090001
    4          8             0        1.432449    0.001004    0.780987
    5         15             0       -0.157982   -0.001425    1.008000
    6         20             0        1.492817    1.845022   -0.625212
    7         20             0        1.496091   -1.841908   -0.627891
    8         20             0       -2.448811   -0.000557   -0.749529
    9          1             0       -4.140301    0.004536   -1.998710
 ---------------------------------------------------------------------

 SCF Done:  E(RB+HF-LYP) =  -2675.77566623     A.U. after    8 cycles

 The electronic state is 1-A.
 Alpha  occ. eigenvalues -- -145.39628-145.39610-145.36579 -77.19193 -19.11807
 Alpha  occ. eigenvalues --  -19.11807 -19.11791 -19.07304 -15.46726 -15.46708
 Alpha  occ. eigenvalues --  -15.43826 -12.59933 -12.59915 -12.59871 -12.59853
 Alpha  occ. eigenvalues --  -12.59806 -12.59788 -12.57070 -12.57001 -12.56805
 Alpha  occ. eigenvalues --   -6.63743  -4.80148  -4.80141  -4.79916  -1.84039
 Alpha  occ. eigenvalues --   -1.84012  -1.81413  -1.12116  -1.11629  -1.11607
 Alpha  occ. eigenvalues --   -1.11435  -1.11340  -1.11263  -1.09430  -1.09069
 Alpha  occ. eigenvalues --   -1.08608  -1.00716  -0.92609  -0.92016  -0.90949
 Alpha  occ. eigenvalues --   -0.51421  -0.43162  -0.42672  -0.39648  -0.35042
 Alpha  occ. eigenvalues --   -0.34875  -0.32092  -0.30547  -0.30198  -0.29204
 Alpha  occ. eigenvalues --   -0.25169  -0.24523  -0.21399  -0.15234
 Alpha virt. eigenvalues --   -0.10316  -0.05415  -0.04153  -0.02369  -0.02169
 Alpha virt. eigenvalues --   -0.01081  -0.00542   0.00382   0.00762   0.02025
 Alpha virt. eigenvalues --    0.05254   0.06347   0.08384   0.08794   0.11191

 Mulliken atomic charges:
              1
     1  O   -0.550882
     2  O   -0.849444
     3  O   -0.849625
     4  O   -0.802772
     5  P    1.319482
     6  Ca   0.572331
     7  Ca   0.569893
     8  Ca   0.882749
     9  H   -0.291732
 Sum of Mulliken charges=   0.00000

 Dipole moment (field-independent basis, Debye):
    X=     5.1991    Y=     0.0246    Z=    -2.2532  Tot=     5.6664
 Quadrupole moment (field-independent basis, Debye-Ang):
   XX=  -106.1496   YY=   -70.2631   ZZ=  -114.6381
   XY=     0.0972   XZ=    -7.4022   YZ=     0.0257

 Normal termination of Gaussian 03 at Mon May  4 20:13:51 2015.
