 Gaussian 03, Revision E.01,
 Gaussian 03:  EM64T-G03RevE.01 11-Sep-2007

 -------------------------------------
 # b3lyp/6-31G(d,p) pop=(ReadRadii,MK)
 -------------------------------------

 --------
 Ca3PO4_9
 --------
 Symbolic Z-matrix:
 Charge =  0 Multiplicity = 1

                         Standard orientation:
 ---------------------------------------------------------------------
 Center     Atomic     Atomic              Coordinates (Angstroms)
 Number     Number      Type              X           Y           Z
 ---------------------------------------------------------------------
    1          8             0        0.779331    0.102246   -0.674765
    2          8             0       -2.734280    0.013078    0.527958
    3          8             0       -2.325010    0.062400   -0.900637
    4          8             0       -1.581430   -0.514712    1.302720
    5         15             0        1.808172    1.610600   -0.479969
    6         20             0       -0.872643    1.497032    0.303942
    7         20             0       -0.707404   -1.588238   -0.565193
    8         20             0        2.509850   -0.848790    0.509889
    9          1             0        1.172478   -2.663169    0.184568
 ---------------------------------------------------------------------

 SCF Done:  E(RB+HF-LYP) =  -2675.50623872     A.U. after   10 cycles

 The electronic state is 1-A.
 Alpha  occ. eigenvalues -- -145.37237-145.35005-145.34122 -77.01913 -19.21428
 Alpha  occ. eigenvalues --  -19.12371 -19.12368 -19.07708 -15.44401 -15.42110
 Alpha  occ. eigenvalues --  -15.41241 -12.57629 -12.57525 -12.57465 -12.55313
 Alpha  occ. eigenvalues --  -12.55278 -12.55185 -12.54435 -12.54418 -12.54315
 Alpha  occ. eigenvalues --   -6.48543  -4.65095  -4.64484  -4.64276  -1.81864
 Alpha  occ. eigenvalues --   -1.79667  -1.78786  -1.10279  -1.09692  -1.09466
 Alpha  occ. eigenvalues --   -1.08771  -1.07536  -1.07266  -1.06503  -1.06416
 Alpha  occ. eigenvalues --   -1.06260  -1.03274  -0.88254  -0.86326  -0.72691
 Alpha  occ. eigenvalues --   -0.48203  -0.42773  -0.40333  -0.39833  -0.30784
 Alpha  occ. eigenvalues --   -0.30149  -0.28778  -0.27466  -0.26522  -0.25236
 Alpha  occ. eigenvalues --   -0.24456  -0.19859  -0.15193  -0.12562
 Alpha virt. eigenvalues --   -0.07449  -0.05231  -0.04366  -0.02396   0.00073
 Alpha virt. eigenvalues --    0.00841   0.01051   0.01731   0.02575   0.03553
 Alpha virt. eigenvalues --    0.03872   0.05452   0.05574   0.06899   0.08304

 Mulliken atomic charges:
              1
     1  O   -0.919129
     2  O   -0.145787
     3  O   -0.544343
     4  O   -0.537021
     5  P   -0.309424
     6  Ca   1.011101
     7  Ca   1.133388
     8  Ca   0.720708
     9  H   -0.409493
 Sum of Mulliken charges=   0.00000

 Dipole moment (field-independent basis, Debye):
    X=     0.7765    Y=    -3.9848    Z=    -0.1239  Tot=     4.0617
 Quadrupole moment (field-independent basis, Debye-Ang):
   XX=   -90.2509   YY=   -78.2572   ZZ=   -89.2209
   XY=   -15.5579   XZ=     7.1898   YZ=    10.8717

 Normal termination of Gaussian 03 at Mon May  4 20:14:02 2015.
