 Gaussian 03, Revision E.01,
 Gaussian 03:  EM64T-G03RevE.01 11-Sep-2007

 -------------------------------------
 # b3lyp/6-31G(d,p) pop=(ReadRadii,MK)
 -------------------------------------

 ----------
 Ca3PO4_173
 ----------
 Symbolic Z-matrix:
 Charge =  0 Multiplicity = 1

                         Standard orientation:
 ---------------------------------------------------------------------
 Center     Atomic     Atomic              Coordinates (Angstroms)
 Number     Number      Type              X           Y           Z
 ---------------------------------------------------------------------
    1          8             0        4.015270    0.324117   -0.645823
    2          8             0       -0.326337   -0.284429   -0.595682
    3          8             0       -2.205030    0.219662    1.023251
    4          8             0        3.946239   -0.867690    0.297157
    5         15             0       -0.679848   -0.510728    1.211721
    6         20             0       -2.409171   -1.383499   -0.687546
    7         20             0        1.876210    0.106692   -0.081928
    8         20             0       -1.361980    1.935741   -0.216638
    9          1             0        4.655409   -0.651027    0.915253
 ---------------------------------------------------------------------

 SCF Done:  E(RB+HF-LYP) =  -2675.55608867     A.U. after   12 cycles

 The electronic state is 1-A.
 Alpha  occ. eigenvalues -- -145.38737-145.37580-145.35149 -77.08179 -19.17860
 Alpha  occ. eigenvalues --  -19.10384 -19.10290 -19.08892 -15.45800 -15.44677
 Alpha  occ. eigenvalues --  -15.42360 -12.58995 -12.58948 -12.58904 -12.57880
 Alpha  occ. eigenvalues --  -12.57832 -12.57749 -12.55592 -12.55557 -12.55352
 Alpha  occ. eigenvalues --   -6.54443  -4.70972  -4.70581  -4.70081  -1.83071
 Alpha  occ. eigenvalues --   -1.82025  -1.80011  -1.10820  -1.10624  -1.10394
 Alpha  occ. eigenvalues --   -1.09682  -1.09452  -1.09294  -1.08580  -1.07864
 Alpha  occ. eigenvalues --   -1.07752  -1.01657  -0.91260  -0.87099  -0.79059
 Alpha  occ. eigenvalues --   -0.51162  -0.47737  -0.37714  -0.35758  -0.35511
 Alpha  occ. eigenvalues --   -0.34671  -0.34274  -0.29423  -0.27332  -0.25218
 Alpha  occ. eigenvalues --   -0.22966  -0.20108  -0.14623  -0.13859
 Alpha virt. eigenvalues --   -0.09836  -0.05982  -0.03963  -0.02257  -0.01647
 Alpha virt. eigenvalues --   -0.01088   0.00053   0.00653   0.01432   0.02273
 Alpha virt. eigenvalues --    0.02528   0.04867   0.05696   0.06830   0.07930

 Mulliken atomic charges:
              1
     1  O   -0.512171
     2  O   -0.878580
     3  O   -0.807706
     4  O   -0.438817
     5  P    0.186821
     6  Ca   0.657257
     7  Ca   1.033564
     8  Ca   0.414083
     9  H    0.345550
 Sum of Mulliken charges=   0.00000

 Dipole moment (field-independent basis, Debye):
    X=    -2.7136    Y=    -0.4943    Z=    -0.4355  Tot=     2.7924
 Quadrupole moment (field-independent basis, Debye-Ang):
   XX=  -101.8403   YY=   -85.5911   ZZ=   -97.8598
   XY=     2.5457   XZ=    14.5975   YZ=     3.7775

 Normal termination of Gaussian 03 at Mon May  4 20:10:58 2015.
