 Gaussian 03, Revision E.01,
 Gaussian 03:  EM64T-G03RevE.01 11-Sep-2007

 -------------------------------------
 # b3lyp/6-31G(d,p) pop=(ReadRadii,MK)
 -------------------------------------

 ----------
 Ca3PO4_120
 ----------
 Symbolic Z-matrix:
 Charge =  0 Multiplicity = 1

                         Standard orientation:
 ---------------------------------------------------------------------
 Center     Atomic     Atomic              Coordinates (Angstroms)
 Number     Number      Type              X           Y           Z
 ---------------------------------------------------------------------
    1          8             0        1.909922    0.005416   -1.055379
    2          8             0        2.236652    0.010933    0.482357
    3          8             0       -1.040298    1.257690    0.498569
    4          8             0       -1.021809   -1.256860    0.512252
    5         15             0       -1.141668    0.004395    1.583001
    6         20             0       -2.016588   -0.015340   -1.273129
    7         20             0        1.073962    1.844790   -0.093272
    8         20             0        1.094571   -1.839370   -0.084076
    9          1             0       -2.589598   -0.004942    1.762171
 ---------------------------------------------------------------------

 SCF Done:  E(RB+HF-LYP) =  -2675.64073173     A.U. after   11 cycles

 The electronic state is 1-A.
 Alpha  occ. eigenvalues -- -145.36329-145.35728-145.35711 -77.11371 -19.10423
 Alpha  occ. eigenvalues --  -19.10281 -19.09788 -19.09693 -15.43434 -15.42823
 Alpha  occ. eigenvalues --  -15.42804 -12.56639 -12.56580 -12.56504 -12.56024
 Alpha  occ. eigenvalues --  -12.56005 -12.55989 -12.55969 -12.55901 -12.55884
 Alpha  occ. eigenvalues --   -6.57158  -4.73561  -4.73407  -4.72923  -1.80744
 Alpha  occ. eigenvalues --   -1.80316  -1.80279  -1.09022  -1.08479  -1.08371
 Alpha  occ. eigenvalues --   -1.08201  -1.08017  -1.07936  -1.07812  -1.07689
 Alpha  occ. eigenvalues --   -1.07399  -0.94159  -0.92682  -0.88965  -0.74212
 Alpha  occ. eigenvalues --   -0.54427  -0.39746  -0.38078  -0.36250  -0.33848
 Alpha  occ. eigenvalues --   -0.32622  -0.31442  -0.29668  -0.29023  -0.26117
 Alpha  occ. eigenvalues --   -0.21658  -0.19817  -0.18925  -0.11922
 Alpha virt. eigenvalues --   -0.08019  -0.07669  -0.03288  -0.02096  -0.00031
 Alpha virt. eigenvalues --    0.00032   0.01235   0.01324   0.01799   0.02449
 Alpha virt. eigenvalues --    0.04619   0.06313   0.06718   0.06829   0.07756

 Mulliken atomic charges:
              1
     1  O   -0.571734
     2  O   -0.589204
     3  O   -0.852560
     4  O   -0.850462
     5  P    0.708195
     6  Ca   0.270809
     7  Ca   1.008385
     8  Ca   1.007315
     9  H   -0.130744
 Sum of Mulliken charges=   0.00000

 Dipole moment (field-independent basis, Debye):
    X=     2.1559    Y=     0.0143    Z=     1.2351  Tot=     2.4847
 Quadrupole moment (field-independent basis, Debye-Ang):
   XX=   -97.5060   YY=   -68.9780   ZZ=  -104.1377
   XY=    -0.1144   XZ=     1.4088   YZ=    -0.1533

 Normal termination of Gaussian 03 at Mon May  4 20:09:43 2015.
