 Gaussian 03, Revision E.01,
 Gaussian 03:  EM64T-G03RevE.01 11-Sep-2007

 -------------------------------------
 # b3lyp/6-31G(d,p) pop=(ReadRadii,MK)
 -------------------------------------

 ---------
 Ca3PO4_59
 ---------
 Symbolic Z-matrix:
 Charge =  0 Multiplicity = 1

                         Standard orientation:
 ---------------------------------------------------------------------
 Center     Atomic     Atomic              Coordinates (Angstroms)
 Number     Number      Type              X           Y           Z
 ---------------------------------------------------------------------
    1          8             0       -1.490449   -1.823780   -0.085991
    2          8             0       -1.504910    1.920030   -0.530255
    3          8             0        0.634317   -0.454770   -0.192868
    4          8             0       -0.586044   -0.447506    1.982751
    5         15             0       -0.134928   -1.657060    0.678565
    6         20             0       -1.505539    0.007604   -1.461849
    7         20             0       -0.028720    1.625980    0.982621
    8         20             0        2.881861   -0.029050   -0.622511
    9          1             0       -1.351419   -0.786559    2.467221
 ---------------------------------------------------------------------

 SCF Done:  E(RB+HF-LYP) =  -2675.72906156     A.U. after   12 cycles

 The electronic state is 1-A.
 Alpha  occ. eigenvalues -- -145.36851-145.34253-145.33862 -77.14554 -19.15281
 Alpha  occ. eigenvalues --  -19.11973 -19.09159 -18.99236 -15.44017 -15.41376
 Alpha  occ. eigenvalues --  -15.40969 -12.57182 -12.57178 -12.57069 -12.54580
 Alpha  occ. eigenvalues --  -12.54571 -12.54403 -12.54173 -12.54131 -12.54036
 Alpha  occ. eigenvalues --   -6.59808  -4.76263  -4.76097  -4.75534  -1.81347
 Alpha  occ. eigenvalues --   -1.78973  -1.78532  -1.08841  -1.08796  -1.08616
 Alpha  occ. eigenvalues --   -1.07259  -1.06760  -1.06368  -1.06353  -1.06223
 Alpha  occ. eigenvalues --   -1.05363  -0.99588  -0.94500  -0.90645  -0.73255
 Alpha  occ. eigenvalues --   -0.55263  -0.46987  -0.41138  -0.38347  -0.37885
 Alpha  occ. eigenvalues --   -0.33079  -0.31121  -0.28275  -0.27450  -0.22086
 Alpha  occ. eigenvalues --   -0.19076  -0.17401  -0.17344  -0.13610
 Alpha virt. eigenvalues --   -0.07012  -0.06635  -0.03024  -0.02629  -0.00793
 Alpha virt. eigenvalues --    0.00195   0.01002   0.02269   0.02573   0.03839
 Alpha virt. eigenvalues --    0.04187   0.05510   0.06276   0.08316   0.09828

 Mulliken atomic charges:
              1
     1  O   -0.746522
     2  O   -0.895575
     3  O   -0.880293
     4  O   -0.727830
     5  P    0.959077
     6  Ca   0.973489
     7  Ca   0.971458
     8  Ca   0.019901
     9  H    0.326294
 Sum of Mulliken charges=   0.00000

 Dipole moment (field-independent basis, Debye):
    X=    -1.2880    Y=    -0.6912    Z=    -0.7989  Tot=     1.6658
 Quadrupole moment (field-independent basis, Debye-Ang):
   XX=   -98.1661   YY=  -103.7891   ZZ=   -70.6089
   XY=     2.6415   XZ=     5.5657   YZ=    13.9821

 Normal termination of Gaussian 03 at Mon May  4 20:13:06 2015.
