 Gaussian 03, Revision E.01,
 Gaussian 03:  EM64T-G03RevE.01 11-Sep-2007

 -------------------------------------
 # b3lyp/6-31G(d,p) pop=(ReadRadii,MK)
 -------------------------------------

 ---------
 Ca3PO4_68
 ---------
 Symbolic Z-matrix:
 Charge =  0 Multiplicity = 1

                         Standard orientation:
 ---------------------------------------------------------------------
 Center     Atomic     Atomic              Coordinates (Angstroms)
 Number     Number      Type              X           Y           Z
 ---------------------------------------------------------------------
    1          8             0        1.388829   -0.018757    1.951609
    2          8             0        0.032668    0.001309   -0.310430
    3          8             0       -3.019761    0.008951   -0.805153
    4          8             0        3.954369    0.013361   -1.451381
    5         15             0       -0.126240   -0.013587    1.478229
    6         20             0       -1.721540   -1.624432   -0.339613
    7         20             0       -1.717992    1.631478   -0.312045
    8         20             0        2.357519    0.000204   -0.107502
    9          1             0        4.685039    0.019874   -2.067431
 ---------------------------------------------------------------------

 SCF Done:  E(RB+HF-LYP) =  -2675.68284397     A.U. after   11 cycles

 The electronic state is 1-A.
 Alpha  occ. eigenvalues -- -145.34904-145.34900-145.32032 -77.09044 -19.09918
 Alpha  occ. eigenvalues --  -19.08185 -19.03918 -18.99315 -15.42022 -15.42018
 Alpha  occ. eigenvalues --  -15.39341 -12.55237 -12.55233 -12.55178 -12.55174
 Alpha  occ. eigenvalues --  -12.55077 -12.55073 -12.52597 -12.52511 -12.52307
 Alpha  occ. eigenvalues --   -6.55128  -4.71611  -4.71189  -4.70976  -1.79593
 Alpha  occ. eigenvalues --   -1.79511  -1.77208  -1.07842  -1.07341  -1.07278
 Alpha  occ. eigenvalues --   -1.06904  -1.06838  -1.06109  -1.05445  -1.05030
 Alpha  occ. eigenvalues --   -1.04975  -0.92096  -0.87886  -0.84979  -0.73431
 Alpha  occ. eigenvalues --   -0.50097  -0.37798  -0.36348  -0.34505  -0.34031
 Alpha  occ. eigenvalues --   -0.27719  -0.27359  -0.24834  -0.21643  -0.21609
 Alpha  occ. eigenvalues --   -0.19410  -0.17575  -0.17342  -0.12195
 Alpha virt. eigenvalues --   -0.08974  -0.06722  -0.03349  -0.00939  -0.00894
 Alpha virt. eigenvalues --    0.00330   0.01352   0.01969   0.03244   0.03533
 Alpha virt. eigenvalues --    0.03666   0.04511   0.05037   0.08088   0.09788

 Mulliken atomic charges:
              1
     1  O   -0.702746
     2  O   -0.917651
     3  O   -0.895370
     4  O   -0.823888
     5  P    0.352504
     6  Ca   0.805446
     7  Ca   0.804923
     8  Ca   1.109973
     9  H    0.266808
 Sum of Mulliken charges=   0.00000

 Dipole moment (field-independent basis, Debye):
    X=    -0.6591    Y=     0.0200    Z=    -3.2135  Tot=     3.2804
 Quadrupole moment (field-independent basis, Debye-Ang):
   XX=  -107.5636   YY=   -59.9659   ZZ=   -96.8866
   XY=     0.0607   XZ=    -1.4476   YZ=     0.3253

 Normal termination of Gaussian 03 at Mon May  4 20:13:14 2015.
