 Gaussian 03, Revision E.01,
 Gaussian 03:  EM64T-G03RevE.01 11-Sep-2007

 -------------------------------------
 # b3lyp/6-31G(d,p) pop=(ReadRadii,MK)
 -------------------------------------

 --------
 Ca3PO4_4
 --------
 Symbolic Z-matrix:
 Charge =  0 Multiplicity = 1

                         Standard orientation:
 ---------------------------------------------------------------------
 Center     Atomic     Atomic              Coordinates (Angstroms)
 Number     Number      Type              X           Y           Z
 ---------------------------------------------------------------------
    1          8             0       -1.839818   -1.596321   -0.552652
    2          8             0        1.963271    0.783602   -1.037590
    3          8             0        2.497971    0.791492    0.435815
    4          8             0       -0.904128    0.121879    1.024100
    5         15             0       -0.865265   -1.522041    0.720052
    6         20             0       -2.634099    0.517541   -0.467945
    7         20             0        2.168612   -1.329140   -0.290611
    8         20             0        0.500725    1.792340    0.307488
    9          1             0       -1.464149    2.410559   -0.736839
 ---------------------------------------------------------------------

 SCF Done:  E(RB+HF-LYP) =  -2675.61700189     A.U. after   14 cycles

 The electronic state is 1-A.
 Alpha  occ. eigenvalues -- -145.37744-145.33946-145.33323 -77.09722 -19.10043
 Alpha  occ. eigenvalues --  -19.08803 -19.08681 -19.08660 -15.44902 -15.41088
 Alpha  occ. eigenvalues --  -15.40494 -12.58119 -12.58048 -12.57963 -12.54288
 Alpha  occ. eigenvalues --  -12.54260 -12.54136 -12.53713 -12.53653 -12.53544
 Alpha  occ. eigenvalues --   -6.55590  -4.71960  -4.71718  -4.71475  -1.82400
 Alpha  occ. eigenvalues --   -1.78554  -1.78172  -1.10231  -1.10163  -1.09504
 Alpha  occ. eigenvalues --   -1.07103  -1.06172  -1.06084  -1.06052  -1.05774
 Alpha  occ. eigenvalues --   -1.05319  -0.93452  -0.91212  -0.88356  -0.72602
 Alpha  occ. eigenvalues --   -0.50028  -0.37321  -0.35382  -0.34113  -0.32400
 Alpha  occ. eigenvalues --   -0.31085  -0.29640  -0.27427  -0.27172  -0.25563
 Alpha  occ. eigenvalues --   -0.24153  -0.19871  -0.17478  -0.11027
 Alpha virt. eigenvalues --   -0.08435  -0.05329  -0.04500  -0.01863  -0.00952
 Alpha virt. eigenvalues --    0.00433   0.01130   0.02072   0.02305   0.03695
 Alpha virt. eigenvalues --    0.04345   0.04939   0.06686   0.08103   0.08664

 Mulliken atomic charges:
              1
     1  O   -0.733349
     2  O   -0.590802
     3  O   -0.592305
     4  O   -0.837471
     5  P    0.494534
     6  Ca   0.936550
     7  Ca   0.733197
     8  Ca   0.998287
     9  H   -0.408641
 Sum of Mulliken charges=   0.00000

 Dipole moment (field-independent basis, Debye):
    X=    -4.2163    Y=     4.2815    Z=     0.7384  Tot=     6.0542
 Quadrupole moment (field-independent basis, Debye-Ang):
   XX=   -80.4442   YY=   -88.6925   ZZ=   -87.6077
   XY=   -11.0706   XZ=     5.7116   YZ=     7.0576

 Normal termination of Gaussian 03 at Mon May  4 20:12:49 2015.
