 Gaussian 03, Revision E.01,
 Gaussian 03:  EM64T-G03RevE.01 11-Sep-2007

 -------------------------------------
 # b3lyp/6-31G(d,p) pop=(ReadRadii,MK)
 -------------------------------------

 ---------
 Ca3PO4_56
 ---------
 Symbolic Z-matrix:
 Charge =  0 Multiplicity = 1

                         Standard orientation:
 ---------------------------------------------------------------------
 Center     Atomic     Atomic              Coordinates (Angstroms)
 Number     Number      Type              X           Y           Z
 ---------------------------------------------------------------------
    1          8             0        1.946070    0.009472    0.547215
    2          8             0       -0.236815   -1.265260    0.666027
    3          8             0       -0.251191    1.260870    0.670200
    4          8             0       -4.004230   -0.005524   -0.780317
    5         15             0        0.545953    0.001572    1.434350
    6         20             0       -2.102850   -0.010597    0.076795
    7         20             0        1.490160   -1.825480   -0.767110
    8         20             0        1.464571    1.835130   -0.766170
    9          1             0       -4.857600   -0.001098   -1.210600
 ---------------------------------------------------------------------

 SCF Done:  E(RB+HF-LYP) =  -2675.78345850     A.U. after   11 cycles

 The electronic state is 1-A.
 Alpha  occ. eigenvalues -- -145.38004-145.37991-145.32549 -77.13154 -19.09794
 Alpha  occ. eigenvalues --  -19.09731 -19.09691 -19.03928 -15.45124 -15.45113
 Alpha  occ. eigenvalues --  -15.39826 -12.58335 -12.58323 -12.58271 -12.58259
 Alpha  occ. eigenvalues --  -12.58193 -12.58181 -12.53081 -12.53003 -12.52796
 Alpha  occ. eigenvalues --   -6.58414  -4.74784  -4.74778  -4.74167  -1.82507
 Alpha  occ. eigenvalues --   -1.82483  -1.77638  -1.10485  -1.10140  -1.10137
 Alpha  occ. eigenvalues --   -1.09906  -1.09815  -1.09691  -1.05829  -1.05442
 Alpha  occ. eigenvalues --   -1.05419  -0.95799  -0.89342  -0.88884  -0.84947
 Alpha  occ. eigenvalues --   -0.51302  -0.39704  -0.39310  -0.37484  -0.37070
 Alpha  occ. eigenvalues --   -0.32229  -0.31874  -0.27443  -0.27072  -0.26351
 Alpha  occ. eigenvalues --   -0.21650  -0.21555  -0.21032  -0.13492
 Alpha virt. eigenvalues --   -0.09348  -0.04920  -0.03584  -0.01700  -0.01504
 Alpha virt. eigenvalues --   -0.00489   0.00375   0.02020   0.02246   0.03474
 Alpha virt. eigenvalues --    0.04077   0.06389   0.07533   0.08903   0.09701

 Mulliken atomic charges:
              1
     1  O   -0.839032
     2  O   -0.860948
     3  O   -0.861115
     4  O   -0.816897
     5  P    1.000760
     6  Ca   1.047736
     7  Ca   0.530169
     8  Ca   0.530206
     9  H    0.269120
 Sum of Mulliken charges=   0.00000

 Dipole moment (field-independent basis, Debye):
    X=     2.1815    Y=     0.0020    Z=    -0.5231  Tot=     2.2433
 Quadrupole moment (field-independent basis, Debye-Ang):
   XX=   -97.5169   YY=   -75.6648   ZZ=  -102.5508
   XY=    -0.0284   XZ=    -2.7438   YZ=    -0.0562

 Normal termination of Gaussian 03 at Mon May  4 20:12:55 2015.
