 Gaussian 03, Revision E.01,
 Gaussian 03:  EM64T-G03RevE.01 11-Sep-2007

 -------------------------------------
 # b3lyp/6-31G(d,p) pop=(ReadRadii,MK)
 -------------------------------------

 ----------
 Ca3PO4_165
 ----------
 Symbolic Z-matrix:
 Charge =  0 Multiplicity = 1

                         Standard orientation:
 ---------------------------------------------------------------------
 Center     Atomic     Atomic              Coordinates (Angstroms)
 Number     Number      Type              X           Y           Z
 ---------------------------------------------------------------------
    1          8             0        2.491037   -0.543085   -0.569982
    2          8             0       -2.971571    0.089114   -0.091715
    3          8             0        0.097200   -0.035258    0.067978
    4          8             0        1.432735   -1.478345    1.618159
    5         15             0        1.206946   -1.254534   -0.043716
    6         20             0        1.827422    1.668484   -0.406927
    7         20             0       -1.606608    1.653322    0.500093
    8         20             0       -1.654625   -1.489798   -0.558282
    9          1             0        2.176824   -2.081586    1.762489
 ---------------------------------------------------------------------

 SCF Done:  E(RB+HF-LYP) =  -2675.69689570     A.U. after   11 cycles

 The electronic state is 1-A.
 Alpha  occ. eigenvalues -- -145.36852-145.36309-145.33907 -77.15001 -19.14168
 Alpha  occ. eigenvalues --  -19.11484 -19.08906 -19.00118 -15.43950 -15.43466
 Alpha  occ. eigenvalues --  -15.41058 -12.57177 -12.57108 -12.56994 -12.56669
 Alpha  occ. eigenvalues --  -12.56633 -12.56504 -12.54278 -12.54231 -12.54084
 Alpha  occ. eigenvalues --   -6.60267  -4.76706  -4.76609  -4.76083  -1.81455
 Alpha  occ. eigenvalues --   -1.80859  -1.78563  -1.09343  -1.09286  -1.08514
 Alpha  occ. eigenvalues --   -1.08498  -1.08376  -1.08096  -1.06413  -1.06251
 Alpha  occ. eigenvalues --   -1.05414  -1.00675  -0.94444  -0.90698  -0.74153
 Alpha  occ. eigenvalues --   -0.56073  -0.46005  -0.41083  -0.39248  -0.36057
 Alpha  occ. eigenvalues --   -0.32967  -0.30807  -0.28011  -0.26680  -0.21960
 Alpha  occ. eigenvalues --   -0.20015  -0.18273  -0.18175  -0.12642
 Alpha virt. eigenvalues --   -0.08273  -0.05945  -0.02729  -0.01770  -0.00569
 Alpha virt. eigenvalues --    0.00152   0.01447   0.01718   0.02005   0.03791
 Alpha virt. eigenvalues --    0.04415   0.04636   0.06808   0.08112   0.08878

 Mulliken atomic charges:
              1
     1  O   -0.726434
     2  O   -0.891939
     3  O   -0.864987
     4  O   -0.600518
     5  P    0.794134
     6  Ca   0.400022
     7  Ca   0.585433
     8  Ca   0.990976
     9  H    0.313313
 Sum of Mulliken charges=   0.00000

 Dipole moment (field-independent basis, Debye):
    X=    -0.3350    Y=    -4.7421    Z=    -0.6528  Tot=     4.7985
 Quadrupole moment (field-independent basis, Debye-Ang):
   XX=  -102.0445   YY=   -83.1347   ZZ=   -86.6349
   XY=     8.6216   XZ=     2.8915   YZ=     5.2542

 Normal termination of Gaussian 03 at Mon May  4 20:10:48 2015.
