 Gaussian 03, Revision E.01,
 Gaussian 03:  EM64T-G03RevE.01 11-Sep-2007

 -------------------------------------
 # b3lyp/6-31G(d,p) pop=(ReadRadii,MK)
 -------------------------------------

 ---------
 Ca3PO4_38
 ---------
 Symbolic Z-matrix:
 Charge =  0 Multiplicity = 1

                         Standard orientation:
 ---------------------------------------------------------------------
 Center     Atomic     Atomic              Coordinates (Angstroms)
 Number     Number      Type              X           Y           Z
 ---------------------------------------------------------------------
    1          8             0       -1.516882   -0.281620   -0.809731
    2          8             0        1.782405   -1.295645    0.849347
    3          8             0        1.974815   -1.296086   -0.712104
    4          8             0        0.800703    2.342067    0.080769
    5         15             0       -2.557923   -0.608318    0.554836
    6         20             0        2.267490    0.784981    0.129795
    7         20             0       -0.117502   -1.919791   -0.164136
    8         20             0       -1.257897    1.851812   -0.141918
    9          1             0       -3.801284   -0.965016   -0.063637
 ---------------------------------------------------------------------

 SCF Done:  E(RB+HF-LYP) =  -2675.62525661     A.U. after    8 cycles

 The electronic state is 1-A.
 Alpha  occ. eigenvalues -- -145.32910-145.32256-145.30658 -77.03425 -19.08690
 Alpha  occ. eigenvalues --  -19.08482 -19.06884 -18.99055 -15.40056 -15.39438
 Alpha  occ. eigenvalues --  -15.37883 -12.53288 -12.53215 -12.53105 -12.52676
 Alpha  occ. eigenvalues --  -12.52600 -12.52455 -12.51104 -12.51078 -12.50872
 Alpha  occ. eigenvalues --   -6.50161  -4.66655  -4.66200  -4.65898  -1.77674
 Alpha  occ. eigenvalues --   -1.77109  -1.75687  -1.06062  -1.05654  -1.05301
 Alpha  occ. eigenvalues --   -1.05120  -1.04792  -1.04214  -1.03747  -1.03565
 Alpha  occ. eigenvalues --   -1.02853  -0.90693  -0.86638  -0.72968  -0.72488
 Alpha  occ. eigenvalues --   -0.52009  -0.34311  -0.32177  -0.31097  -0.29815
 Alpha  occ. eigenvalues --   -0.29646  -0.28505  -0.20939  -0.19748  -0.18999
 Alpha  occ. eigenvalues --   -0.17535  -0.17361  -0.16969  -0.14530
 Alpha virt. eigenvalues --   -0.05968  -0.04164  -0.04065  -0.00248   0.01012
 Alpha virt. eigenvalues --    0.01861   0.02410   0.03190   0.04125   0.04502
 Alpha virt. eigenvalues --    0.05101   0.05898   0.06599   0.08695   0.08903

 Mulliken atomic charges:
              1
     1  O   -0.857948
     2  O   -0.592992
     3  O   -0.601008
     4  O   -0.922272
     5  P   -0.134495
     6  Ca   1.074709
     7  Ca   1.108241
     8  Ca   0.985811
     9  H   -0.060045
 Sum of Mulliken charges=   0.00000

 Dipole moment (field-independent basis, Debye):
    X=     1.4858    Y=     0.8584    Z=    -1.9463  Tot=     2.5947
 Quadrupole moment (field-independent basis, Debye-Ang):
   XX=   -79.7138   YY=   -71.8447   ZZ=   -84.8523
   XY=    -1.4880   XZ=     4.8251   YZ=     1.1910

 Normal termination of Gaussian 03 at Mon May  4 20:12:17 2015.
