 Gaussian 03, Revision E.01,
 Gaussian 03:  EM64T-G03RevE.01 11-Sep-2007

 -------------------------------------
 # b3lyp/6-31G(d,p) pop=(ReadRadii,MK)
 -------------------------------------

 ---------
 Ca3PO4_21
 ---------
 Symbolic Z-matrix:
 Charge =  0 Multiplicity = 1

                         Standard orientation:
 ---------------------------------------------------------------------
 Center     Atomic     Atomic              Coordinates (Angstroms)
 Number     Number      Type              X           Y           Z
 ---------------------------------------------------------------------
    1          8             0       -0.466378    1.283189    1.069220
    2          8             0       -0.453408   -1.277531    1.081740
    3          8             0       -0.216223   -0.009895   -1.719260
    4          8             0        1.724580    0.012273    0.642599
    5         15             0        0.389284    0.010653    1.693510
    6         20             0        0.860524    1.646270   -0.731504
    7         20             0        0.878534   -1.645180   -0.718579
    8         20             0       -2.057500   -0.012933   -0.223323
    9          1             0       -4.178980    0.012762   -0.528891
 ---------------------------------------------------------------------

 SCF Done:  E(RB+HF-LYP) =  -2675.79706055     A.U. after    9 cycles

 The electronic state is 1-A.
 Alpha  occ. eigenvalues -- -145.36034-145.35992-145.29389 -77.12162 -19.08665
 Alpha  occ. eigenvalues --  -19.08106 -19.08102 -19.02998 -15.43111 -15.43072
 Alpha  occ. eigenvalues --  -15.36615 -12.56289 -12.56275 -12.56249 -12.56236
 Alpha  occ. eigenvalues --  -12.56205 -12.56165 -12.49848 -12.49782 -12.49626
 Alpha  occ. eigenvalues --   -6.57294  -4.73657  -4.73632  -4.73120  -1.80727
 Alpha  occ. eigenvalues --   -1.80646  -1.74331  -1.09182  -1.08513  -1.08413
 Alpha  occ. eigenvalues --   -1.08155  -1.08043  -1.07554  -1.02456  -1.02094
 Alpha  occ. eigenvalues --   -1.01464  -0.93825  -0.87510  -0.87426  -0.77640
 Alpha  occ. eigenvalues --   -0.49682  -0.37717  -0.37517  -0.35308  -0.30501
 Alpha  occ. eigenvalues --   -0.30138  -0.25628  -0.25377  -0.24937  -0.23021
 Alpha  occ. eigenvalues --   -0.22785  -0.21505  -0.18211  -0.16717
 Alpha virt. eigenvalues --   -0.09128  -0.07995  -0.02525  -0.00969  -0.00250
 Alpha virt. eigenvalues --    0.00271   0.02787   0.03412   0.03740   0.04082
 Alpha virt. eigenvalues --    0.04556   0.07334   0.08799   0.08899   0.10977

 Mulliken atomic charges:
              1
     1  O   -0.842645
     2  O   -0.843019
     3  O   -0.931122
     4  O   -0.852849
     5  P    1.037656
     6  Ca   0.974442
     7  Ca   0.970273
     8  Ca   0.789731
     9  H   -0.302467
 Sum of Mulliken charges=   0.00000

 Dipole moment (field-independent basis, Debye):
    X=    10.9930    Y=    -0.0869    Z=    -5.7378  Tot=    12.4007
 Quadrupole moment (field-independent basis, Debye-Ang):
   XX=  -111.8779   YY=   -50.7434   ZZ=   -97.1096
   XY=     0.0979   XZ=   -15.0587   YZ=    -0.2144

 Normal termination of Gaussian 03 at Mon May  4 20:11:59 2015.
