 Gaussian 03, Revision E.01,
 Gaussian 03:  EM64T-G03RevE.01 11-Sep-2007

 -------------------------------------
 # b3lyp/6-31G(d,p) pop=(ReadRadii,MK)
 -------------------------------------

 ---------
 Ca3PO4_98
 ---------
 Symbolic Z-matrix:
 Charge =  0 Multiplicity = 1

                         Standard orientation:
 ---------------------------------------------------------------------
 Center     Atomic     Atomic              Coordinates (Angstroms)
 Number     Number      Type              X           Y           Z
 ---------------------------------------------------------------------
    1          8             0       -0.763130    0.086141    1.052400
    2          8             0       -1.050030   -1.684600   -0.679212
    3          8             0        1.246010   -1.599550    0.675698
    4          8             0        0.730660    0.233515   -0.942640
    5         15             0        0.065248   -0.860609    0.030362
    6         20             0        2.893350   -0.081861   -0.053107
    7         20             0       -2.731650   -0.320590   -0.023849
    8         20             0       -0.149568    2.143380    0.038357
    9          1             0       -2.529460    1.806500   -0.533380
 ---------------------------------------------------------------------

 SCF Done:  E(RB+HF-LYP) =  -2675.78374057     A.U. after   10 cycles

 The electronic state is 1-A.
 Alpha  occ. eigenvalues -- -145.39864-145.36531-145.35883 -77.18154 -19.09587
 Alpha  occ. eigenvalues --  -19.09234 -19.08767 -19.07876 -15.46955 -15.43610
 Alpha  occ. eigenvalues --  -15.42996 -12.60171 -12.60115 -12.60023 -12.56802
 Alpha  occ. eigenvalues --  -12.56755 -12.56722 -12.56203 -12.56143 -12.56067
 Alpha  occ. eigenvalues --   -6.62584  -4.78987  -4.78936  -4.78850  -1.84366
 Alpha  occ. eigenvalues --   -1.80922  -1.80294  -1.12351  -1.11982  -1.11405
 Alpha  occ. eigenvalues --   -1.08794  -1.08500  -1.08212  -1.07947  -1.07753
 Alpha  occ. eigenvalues --   -1.07614  -0.99264  -0.90997  -0.90259  -0.89674
 Alpha  occ. eigenvalues --   -0.49514  -0.40760  -0.40375  -0.39610  -0.33510
 Alpha  occ. eigenvalues --   -0.31902  -0.31228  -0.29102  -0.28700  -0.26363
 Alpha  occ. eigenvalues --   -0.25601  -0.24742  -0.24437  -0.11635
 Alpha virt. eigenvalues --   -0.09630  -0.06735  -0.02317  -0.01469  -0.00890
 Alpha virt. eigenvalues --   -0.00566   0.00715   0.01797   0.02470   0.03091
 Alpha virt. eigenvalues --    0.04395   0.05894   0.08470   0.10009   0.11167

 Mulliken atomic charges:
              1
     1  O   -0.819864
     2  O   -0.732272
     3  O   -0.693248
     4  O   -0.810136
     5  P    1.358455
     6  Ca   0.521996
     7  Ca   0.979981
     8  Ca   0.586923
     9  H   -0.391835
 Sum of Mulliken charges=   0.00000

 Dipole moment (field-independent basis, Debye):
    X=    -8.4520    Y=    -0.2221    Z=     0.0842  Tot=     8.4553
 Quadrupole moment (field-independent basis, Debye-Ang):
   XX=   -62.3721   YY=  -103.2147   ZZ=   -95.4396
   XY=     1.2711   XZ=    -5.7381   YZ=     0.5234

 Normal termination of Gaussian 03 at Mon May  4 20:14:01 2015.
