 Gaussian 03, Revision E.01,
 Gaussian 03:  EM64T-G03RevE.01 11-Sep-2007

 -------------------------------------
 # b3lyp/6-31G(d,p) pop=(ReadRadii,MK)
 -------------------------------------

 ----------
 Ca3PO4_135
 ----------
 Symbolic Z-matrix:
 Charge =  0 Multiplicity = 1

                         Standard orientation:
 ---------------------------------------------------------------------
 Center     Atomic     Atomic              Coordinates (Angstroms)
 Number     Number      Type              X           Y           Z
 ---------------------------------------------------------------------
    1          8             0       -1.652722    0.046197    1.089360
    2          8             0       -1.842183   -1.584286   -0.874460
    3          8             0        0.922151    1.107691   -0.415462
    4          8             0        2.402827   -1.545341    0.399561
    5         15             0       -2.601172   -0.388561   -0.189704
    6         20             0        2.980289    0.415502   -0.147744
    7         20             0       -1.007360    1.935303    0.036078
    8         20             0        0.234345   -1.221519    0.152043
    9          1             0       -3.768473   -0.951399    0.446027
 ---------------------------------------------------------------------

 SCF Done:  E(RB+HF-LYP) =  -2675.71573214     A.U. after   11 cycles

 The electronic state is 1-A.
 Alpha  occ. eigenvalues -- -145.35791-145.32668-145.27295 -77.09325 -19.07195
 Alpha  occ. eigenvalues --  -19.05457 -19.02347 -18.98230 -15.42912 -15.39813
 Alpha  occ. eigenvalues --  -15.34522 -12.56134 -12.56057 -12.55971 -12.53031
 Alpha  occ. eigenvalues --  -12.52962 -12.52847 -12.47751 -12.47705 -12.47523
 Alpha  occ. eigenvalues --   -6.55179  -4.71568  -4.71425  -4.71075  -1.80475
 Alpha  occ. eigenvalues --   -1.77473  -1.72324  -1.08440  -1.08139  -1.07543
 Alpha  occ. eigenvalues --   -1.05456  -1.05089  -1.04461  -1.00408  -1.00157
 Alpha  occ. eigenvalues --   -0.99903  -0.91384  -0.86365  -0.76829  -0.71798
 Alpha  occ. eigenvalues --   -0.51137  -0.37357  -0.34338  -0.33110  -0.26895
 Alpha  occ. eigenvalues --   -0.24943  -0.23342  -0.23105  -0.21750  -0.20781
 Alpha  occ. eigenvalues --   -0.17279  -0.16208  -0.15747  -0.15573
 Alpha virt. eigenvalues --   -0.08670  -0.07458  -0.01627  -0.00472  -0.00196
 Alpha virt. eigenvalues --    0.00799   0.01463   0.02761   0.03298   0.04628
 Alpha virt. eigenvalues --    0.06026   0.06699   0.07373   0.09266   0.10014

 Mulliken atomic charges:
              1
     1  O   -0.806660
     2  O   -0.712289
     3  O   -0.955070
     4  O   -0.881109
     5  P    0.646765
     6  Ca   0.884019
     7  Ca   1.015747
     8  Ca   0.932807
     9  H   -0.124209
 Sum of Mulliken charges=   0.00000

 Dipole moment (field-independent basis, Debye):
    X=     4.0082    Y=    11.1887    Z=     0.0917  Tot=    11.8854
 Quadrupole moment (field-independent basis, Debye-Ang):
   XX=   -75.1324   YY=   -71.3665   ZZ=   -85.9610
   XY=     5.1084   XZ=    -6.6830   YZ=     1.5875

 Normal termination of Gaussian 03 at Mon May  4 20:10:03 2015.
