 Gaussian 03, Revision E.01,
 Gaussian 03:  EM64T-G03RevE.01 11-Sep-2007

 -------------------------------------
 # b3lyp/6-31G(d,p) pop=(ReadRadii,MK)
 -------------------------------------

 ----------
 Ca3PO4_124
 ----------
 Symbolic Z-matrix:
 Charge =  0 Multiplicity = 1

                         Standard orientation:
 ---------------------------------------------------------------------
 Center     Atomic     Atomic              Coordinates (Angstroms)
 Number     Number      Type              X           Y           Z
 ---------------------------------------------------------------------
    1          8             0       -1.519891   -1.285250    0.895668
    2          8             0        0.182436    0.520806    1.749050
    3          8             0        1.099279   -1.695740    0.752245
    4          8             0       -0.058608    0.021995   -0.707161
    5         15             0       -0.099787   -0.704288    0.837974
    6         20             0        2.126239   -0.649982   -0.955557
    7         20             0       -2.435491   -0.101431   -0.895703
    8         20             0        0.375826    2.180220    0.180447
    9          1             0        2.539549    1.493660   -0.671745
 ---------------------------------------------------------------------

 SCF Done:  E(RB+HF-LYP) =  -2675.77771687     A.U. after    9 cycles

 The electronic state is 1-A.
 Alpha  occ. eigenvalues -- -145.40086-145.37261-145.36074 -77.18158 -19.11014
 Alpha  occ. eigenvalues --  -19.08837 -19.08105 -19.08010 -15.47167 -15.44337
 Alpha  occ. eigenvalues --  -15.43194 -12.60375 -12.60334 -12.60238 -12.57521
 Alpha  occ. eigenvalues --  -12.57488 -12.57453 -12.56399 -12.56342 -12.56262
 Alpha  occ. eigenvalues --   -6.62596  -4.79112  -4.78862  -4.78830  -1.84557
 Alpha  occ. eigenvalues --   -1.81664  -1.80507  -1.12576  -1.12142  -1.11598
 Alpha  occ. eigenvalues --   -1.09481  -1.09127  -1.08994  -1.08184  -1.08020
 Alpha  occ. eigenvalues --   -1.07819  -0.99119  -0.90675  -0.90321  -0.89990
 Alpha  occ. eigenvalues --   -0.49493  -0.41369  -0.39868  -0.39395  -0.33905
 Alpha  occ. eigenvalues --   -0.33254  -0.29884  -0.29237  -0.28440  -0.26717
 Alpha  occ. eigenvalues --   -0.26180  -0.25345  -0.23300  -0.12156
 Alpha virt. eigenvalues --   -0.09805  -0.07174  -0.03137  -0.02379  -0.00992
 Alpha virt. eigenvalues --   -0.00674   0.00256   0.01346   0.02381   0.02690
 Alpha virt. eigenvalues --    0.04437   0.05733   0.09554   0.10244   0.10606

 Mulliken atomic charges:
              1
     1  O   -0.680232
     2  O   -0.713483
     3  O   -0.717307
     4  O   -0.916745
     5  P    1.348212
     6  Ca   1.039867
     7  Ca   0.400579
     8  Ca   0.654400
     9  H   -0.415292
 Sum of Mulliken charges=   0.00000

 Dipole moment (field-independent basis, Debye):
    X=     6.7190    Y=    -0.0097    Z=    -6.0315  Tot=     9.0290
 Quadrupole moment (field-independent basis, Debye-Ang):
   XX=   -79.5139   YY=   -91.2011   ZZ=   -96.7660
   XY=    -2.9016   XZ=   -11.6190   YZ=    16.4329

 Normal termination of Gaussian 03 at Mon May  4 20:09:41 2015.
