 Gaussian 03, Revision E.01,
 Gaussian 03:  EM64T-G03RevE.01 11-Sep-2007

 -------------------------------------
 # b3lyp/6-31G(d,p) pop=(ReadRadii,MK)
 -------------------------------------

 ----------
 Ca3PO4_104
 ----------
 Symbolic Z-matrix:
 Charge =  0 Multiplicity = 1

                         Standard orientation:
 ---------------------------------------------------------------------
 Center     Atomic     Atomic              Coordinates (Angstroms)
 Number     Number      Type              X           Y           Z
 ---------------------------------------------------------------------
    1          8             0       -1.438911   -0.000475    1.633680
    2          8             0       -0.456569    1.261419   -0.330088
    3          8             0       -0.455424   -1.264001   -0.328736
    4          8             0        1.237919    0.000367    1.072700
    5         15             0       -0.285066   -0.000775    0.637680
    6         20             0        1.792971   -1.819679   -0.358330
    7         20             0        1.790927    1.821401   -0.357517
    8         20             0       -2.697801   -0.000096   -0.505818
    9          1             0       -4.542091    0.000604   -1.512330
 ---------------------------------------------------------------------

 SCF Done:  E(RB+HF-LYP) =  -2675.77971607     A.U. after    7 cycles

 The electronic state is 1-A.
 Alpha  occ. eigenvalues -- -145.39650-145.39649-145.36306 -77.19494 -19.12862
 Alpha  occ. eigenvalues --  -19.10912 -19.10909 -19.08998 -15.46733 -15.46732
 Alpha  occ. eigenvalues --  -15.43445 -12.59940 -12.59938 -12.59883 -12.59881
 Alpha  occ. eigenvalues --  -12.59813 -12.59812 -12.56657 -12.56650 -12.56462
 Alpha  occ. eigenvalues --   -6.64168  -4.80574  -4.80501  -4.80393  -1.84014
 Alpha  occ. eigenvalues --   -1.83990  -1.80846  -1.12104  -1.11586  -1.11554
 Alpha  occ. eigenvalues --   -1.11354  -1.11304  -1.11248  -1.08539  -1.08521
 Alpha  occ. eigenvalues --   -1.08250  -1.01400  -0.93802  -0.91779  -0.91367
 Alpha  occ. eigenvalues --   -0.51285  -0.43468  -0.42075  -0.40910  -0.35559
 Alpha  occ. eigenvalues --   -0.34305  -0.32285  -0.31439  -0.30639  -0.28241
 Alpha  occ. eigenvalues --   -0.27120  -0.24469  -0.20500  -0.15099
 Alpha virt. eigenvalues --   -0.10066  -0.04708  -0.03433  -0.01734  -0.01592
 Alpha virt. eigenvalues --   -0.00820   0.00142   0.00984   0.01095   0.02247
 Alpha virt. eigenvalues --    0.05618   0.06305   0.08151   0.08238   0.11443

 Mulliken atomic charges:
              1
     1  O   -0.666575
     2  O   -0.819381
     3  O   -0.819100
     4  O   -0.782075
     5  P    1.394193
     6  Ca   0.580259
     7  Ca   0.580318
     8  Ca   0.827680
     9  H   -0.295319
 Sum of Mulliken charges=   0.00000

 Dipole moment (field-independent basis, Debye):
    X=     6.0494    Y=     0.0000    Z=    -0.4982  Tot=     6.0699
 Quadrupole moment (field-independent basis, Debye-Ang):
   XX=  -116.1908   YY=   -70.6156   ZZ=  -102.9068
   XY=    -0.0170   XZ=    -5.4086   YZ=     0.0153

 Normal termination of Gaussian 03 at Mon May  4 20:09:27 2015.
