 Gaussian 03, Revision E.01,
 Gaussian 03:  EM64T-G03RevE.01 11-Sep-2007

 -------------------------------------
 # b3lyp/6-31G(d,p) pop=(ReadRadii,MK)
 -------------------------------------

 ----------
 Ca3PO4_201
 ----------
 Symbolic Z-matrix:
 Charge =  0 Multiplicity = 1

                         Standard orientation:
 ---------------------------------------------------------------------
 Center     Atomic     Atomic              Coordinates (Angstroms)
 Number     Number      Type              X           Y           Z
 ---------------------------------------------------------------------
    1          8             0       -0.287736   -0.005597   -1.523920
    2          8             0        0.012071   -1.262400    1.212820
    3          8             0        0.021312    1.270050    1.203800
    4          8             0        3.709750   -0.004396   -0.421386
    5         15             0       -0.621633    0.008655    1.921700
    6         20             0       -1.390290   -1.708450   -0.669256
    7         20             0       -1.378551    1.710310   -0.678862
    8         20             0        1.619920   -0.007314   -0.255273
    9          1             0        4.659750   -0.001981   -0.528177
 ---------------------------------------------------------------------

 SCF Done:  E(RB+HF-LYP) =  -2675.74630230     A.U. after   12 cycles

 The electronic state is 1-A.
 Alpha  occ. eigenvalues -- -145.37386-145.37363-145.29573 -77.15498 -19.13471
 Alpha  occ. eigenvalues --  -19.13342 -19.03432 -19.02427 -15.44467 -15.44444
 Alpha  occ. eigenvalues --  -15.36818 -12.57687 -12.57664 -12.57605 -12.57582
 Alpha  occ. eigenvalues --  -12.57547 -12.57524 -12.50063 -12.49995 -12.49810
 Alpha  occ. eigenvalues --   -6.61225  -4.77562  -4.77477  -4.77044  -1.81880
 Alpha  occ. eigenvalues --   -1.81828  -1.74661  -1.09853  -1.09569  -1.09500
 Alpha  occ. eigenvalues --   -1.09426  -1.09205  -1.08617  -1.03045  -1.02896
 Alpha  occ. eigenvalues --   -1.02162  -0.98564  -0.93648  -0.83455  -0.78451
 Alpha  occ. eigenvalues --   -0.53663  -0.41630  -0.40110  -0.39010  -0.35706
 Alpha  occ. eigenvalues --   -0.32610  -0.29902  -0.27836  -0.24135  -0.24073
 Alpha  occ. eigenvalues --   -0.21843  -0.20045  -0.19884  -0.13860
 Alpha virt. eigenvalues --   -0.09290  -0.08845  -0.03956  -0.01645  -0.01184
 Alpha virt. eigenvalues --   -0.00737  -0.00479   0.02059   0.02079   0.03471
 Alpha virt. eigenvalues --    0.04564   0.05978   0.07096   0.07487   0.08433

 Mulliken atomic charges:
              1
     1  O   -0.935562
     2  O   -0.734348
     3  O   -0.737170
     4  O   -0.820933
     5  P    0.672508
     6  Ca   0.760426
     7  Ca   0.757651
     8  Ca   0.772917
     9  H    0.264510
 Sum of Mulliken charges=   0.00000

 Dipole moment (field-independent basis, Debye):
    X=    -3.9587    Y=    -0.0597    Z=    -1.5987  Tot=     4.2697
 Quadrupole moment (field-independent basis, Debye-Ang):
   XX=  -102.7147   YY=   -69.7337   ZZ=   -96.7290
   XY=     0.1399   XZ=     3.7269   YZ=    -0.0889

 Normal termination of Gaussian 03 at Mon May  4 20:11:36 2015.
