 Gaussian 03, Revision E.01,
 Gaussian 03:  EM64T-G03RevE.01 11-Sep-2007

 -------------------------------------
 # b3lyp/6-31G(d,p) pop=(ReadRadii,MK)
 -------------------------------------

 ----------
 Ca3PO4_115
 ----------
 Symbolic Z-matrix:
 Charge =  0 Multiplicity = 1

                         Standard orientation:
 ---------------------------------------------------------------------
 Center     Atomic     Atomic              Coordinates (Angstroms)
 Number     Number      Type              X           Y           Z
 ---------------------------------------------------------------------
    1          8             0        0.630491    0.813832    0.868027
    2          8             0       -1.723869   -0.454979   -0.911039
    3          8             0        0.950674    1.650410   -0.413883
    4          8             0        2.194412   -1.692740   -0.255631
    5         15             0       -2.951169   -0.661933    0.274804
    6         20             0       -1.296480    1.610189   -0.075044
    7         20             0        2.737711    0.334095    0.067600
    8         20             0        0.055817   -1.511471    0.019021
    9          1             0       -2.087099   -1.259471    1.346610
 ---------------------------------------------------------------------

 SCF Done:  E(RB+HF-LYP) =  -2675.61455519     A.U. after    9 cycles

 The electronic state is 1-A.
 Alpha  occ. eigenvalues -- -145.34181-145.33475-145.31105 -77.03820 -19.11840
 Alpha  occ. eigenvalues --  -19.11499 -19.06217 -18.98732 -15.41331 -15.40605
 Alpha  occ. eigenvalues --  -15.38251 -12.54539 -12.54486 -12.54402 -12.53812
 Alpha  occ. eigenvalues --  -12.53779 -12.53645 -12.51474 -12.51465 -12.51253
 Alpha  occ. eigenvalues --   -6.50341  -4.66777  -4.66462  -4.66022  -1.78941
 Alpha  occ. eigenvalues --   -1.78249  -1.75898  -1.07556  -1.06739  -1.06554
 Alpha  occ. eigenvalues --   -1.06080  -1.06038  -1.05381  -1.03860  -1.03719
 Alpha  occ. eigenvalues --   -1.02940  -0.94168  -0.86770  -0.75522  -0.72587
 Alpha  occ. eigenvalues --   -0.51622  -0.35710  -0.34742  -0.34243  -0.32593
 Alpha  occ. eigenvalues --   -0.29192  -0.27968  -0.23315  -0.21361  -0.20080
 Alpha  occ. eigenvalues --   -0.18281  -0.16794  -0.16523  -0.12796
 Alpha virt. eigenvalues --   -0.07510  -0.06223  -0.02891  -0.01425   0.00416
 Alpha virt. eigenvalues --    0.01352   0.01984   0.02752   0.03123   0.03809
 Alpha virt. eigenvalues --    0.04603   0.06388   0.06573   0.07027   0.09060

 Mulliken atomic charges:
              1
     1  O   -0.609947
     2  O   -0.852588
     3  O   -0.597159
     4  O   -0.895036
     5  P    0.049329
     6  Ca   1.064017
     7  Ca   1.108938
     8  Ca   0.918126
     9  H   -0.185680
 Sum of Mulliken charges=   0.00000

 Dipole moment (field-independent basis, Debye):
    X=     5.4858    Y=     6.6241    Z=     0.8736  Tot=     8.6450
 Quadrupole moment (field-independent basis, Debye-Ang):
   XX=   -85.1964   YY=   -75.5324   ZZ=   -85.1617
   XY=     5.2879   XZ=     4.8643   YZ=    -5.9921

 Normal termination of Gaussian 03 at Mon May  4 20:09:31 2015.
