 Gaussian 03, Revision E.01,
 Gaussian 03:  EM64T-G03RevE.01 11-Sep-2007

 -------------------------------------
 # b3lyp/6-31G(d,p) pop=(ReadRadii,MK)
 -------------------------------------

 ----------
 Ca3PO4_216
 ----------
 Symbolic Z-matrix:
 Charge =  0 Multiplicity = 1

                         Standard orientation:
 ---------------------------------------------------------------------
 Center     Atomic     Atomic              Coordinates (Angstroms)
 Number     Number      Type              X           Y           Z
 ---------------------------------------------------------------------
    1          8             0        4.123612    0.772214   -1.131200
    2          8             0        4.276792   -0.013297    1.232630
    3          8             0        0.260619   -0.916088   -0.132332
    4          8             0       -3.924048   -0.320094   -0.036903
    5         15             0        5.055802    0.680490    0.095345
    6         20             0       -1.875298   -0.925400   -0.128018
    7         20             0        2.276672   -0.292714   -0.048318
    8         20             0       -5.712888    0.801814    0.118135
    9          1             0       -7.502548    1.936770    0.276318
 ---------------------------------------------------------------------

 SCF Done:  E(RB+HF-LYP) =  -2675.69279738     A.U. after   10 cycles

 The electronic state is 1-A.
 Alpha  occ. eigenvalues -- -145.33325-145.33226-145.29679 -77.15280 -19.13351
 Alpha  occ. eigenvalues --  -19.13264 -19.00269 -19.00130 -15.40735 -15.40520
 Alpha  occ. eigenvalues --  -15.37127 -12.53962 -12.53962 -12.53772 -12.53705
 Alpha  occ. eigenvalues --  -12.53625 -12.53471 -12.50363 -12.50358 -12.49998
 Alpha  occ. eigenvalues --   -6.61196  -4.77630  -4.77362  -4.76994  -1.78620
 Alpha  occ. eigenvalues --   -1.78336  -1.75228  -1.06737  -1.06736  -1.06562
 Alpha  occ. eigenvalues --   -1.06187  -1.06077  -1.05078  -1.03516  -1.03487
 Alpha  occ. eigenvalues --   -1.01976  -0.99352  -0.93838  -0.75057  -0.73673
 Alpha  occ. eigenvalues --   -0.52116  -0.40776  -0.39206  -0.38732  -0.30391
 Alpha  occ. eigenvalues --   -0.29243  -0.26980  -0.22972  -0.20872  -0.18917
 Alpha  occ. eigenvalues --   -0.18820  -0.18813  -0.18674  -0.18656
 Alpha virt. eigenvalues --   -0.05943  -0.05824  -0.03996  -0.02543  -0.00980
 Alpha virt. eigenvalues --   -0.00923   0.00043   0.00466   0.01988   0.02187
 Alpha virt. eigenvalues --    0.04149   0.05619   0.06324   0.08416   0.08896

 Mulliken atomic charges:
              1
     1  O   -0.644096
     2  O   -0.645641
     3  O   -0.926893
     4  O   -0.939365
     5  P    0.736977
     6  Ca   0.841916
     7  Ca   1.035689
     8  Ca   0.817564
     9  H   -0.276150
 Sum of Mulliken charges=   0.00000

 Dipole moment (field-independent basis, Debye):
    X=     0.9434    Y=    -2.4973    Z=    -0.3906  Tot=     2.6980
 Quadrupole moment (field-independent basis, Debye-Ang):
   XX=  -139.2433   YY=   -83.1755   ZZ=   -84.3683
   XY=    15.0835   XZ=     1.4453   YZ=     2.1148

 Normal termination of Gaussian 03 at Mon May  4 20:11:42 2015.
