 Gaussian 03, Revision E.01,
 Gaussian 03:  EM64T-G03RevE.01 11-Sep-2007

 -------------------------------------
 # b3lyp/6-31G(d,p) pop=(ReadRadii,MK)
 -------------------------------------

 ----------
 Ca3PO4_183
 ----------
 Symbolic Z-matrix:
 Charge =  0 Multiplicity = 1

                         Standard orientation:
 ---------------------------------------------------------------------
 Center     Atomic     Atomic              Coordinates (Angstroms)
 Number     Number      Type              X           Y           Z
 ---------------------------------------------------------------------
    1          8             0       -0.034111    0.456210    1.836360
    2          8             0        1.442121   -1.452460    0.777097
    3          8             0       -0.087009   -0.025026   -0.634663
    4          8             0       -1.212010   -1.650359    0.853346
    5         15             0        0.139915   -0.669142    0.812517
    6         20             0        2.449491   -0.275961   -1.056080
    7         20             0       -0.049817    2.249970    0.281037
    8         20             0       -2.475499   -0.308045   -1.055010
    9          1             0       -1.454160   -1.909089    1.756180
 ---------------------------------------------------------------------

 SCF Done:  E(RB+HF-LYP) =  -2675.73647318     A.U. after    8 cycles

 The electronic state is 1-A.
 Alpha  occ. eigenvalues -- -145.39840-145.38693-145.38627 -77.23400 -19.20690
 Alpha  occ. eigenvalues --  -19.14858 -19.12580 -19.12574 -15.46898 -15.45783
 Alpha  occ. eigenvalues --  -15.45724 -12.60072 -12.60062 -12.60004 -12.58973
 Alpha  occ. eigenvalues --  -12.58940 -12.58902 -12.58876 -12.58858 -12.58807
 Alpha  occ. eigenvalues --   -6.67944  -4.84442  -4.84265  -4.84105  -1.84114
 Alpha  occ. eigenvalues --   -1.82990  -1.82933  -1.12070  -1.11527  -1.11452
 Alpha  occ. eigenvalues --   -1.10691  -1.10494  -1.10409  -1.10303  -1.10267
 Alpha  occ. eigenvalues --   -1.10202  -1.07449  -1.00986  -0.95488  -0.95199
 Alpha  occ. eigenvalues --   -0.61043  -0.50635  -0.46892  -0.44397  -0.42085
 Alpha  occ. eigenvalues --   -0.38313  -0.37482  -0.36401  -0.33522  -0.32029
 Alpha  occ. eigenvalues --   -0.30229  -0.28426  -0.15541  -0.12686
 Alpha virt. eigenvalues --   -0.09302  -0.04693  -0.03916  -0.03165  -0.01974
 Alpha virt. eigenvalues --   -0.01283  -0.00483   0.00374   0.01469   0.02509
 Alpha virt. eigenvalues --    0.04520   0.06902   0.07218   0.08518   0.09142

 Mulliken atomic charges:
              1
     1  O   -0.661378
     2  O   -0.642559
     3  O   -0.840994
     4  O   -0.619700
     5  P    1.316221
     6  Ca   0.413158
     7  Ca   0.453373
     8  Ca   0.224799
     9  H    0.357080
 Sum of Mulliken charges=   0.00000

 Dipole moment (field-independent basis, Debye):
    X=    -0.4852    Y=    -0.5760    Z=     0.2055  Tot=     0.7807
 Quadrupole moment (field-independent basis, Debye-Ang):
   XX=  -108.9043   YY=   -90.6417   ZZ=  -101.2427
   XY=     1.9580   XZ=    -6.2047   YZ=     6.3206

 Normal termination of Gaussian 03 at Mon May  4 20:11:09 2015.
