 Gaussian 03, Revision E.01,
 Gaussian 03:  EM64T-G03RevE.01 11-Sep-2007

 -------------------------------------
 # b3lyp/6-31G(d,p) pop=(ReadRadii,MK)
 -------------------------------------

 ----------
 Ca3PO4_169
 ----------
 Symbolic Z-matrix:
 Charge =  0 Multiplicity = 1

                         Standard orientation:
 ---------------------------------------------------------------------
 Center     Atomic     Atomic              Coordinates (Angstroms)
 Number     Number      Type              X           Y           Z
 ---------------------------------------------------------------------
    1          8             0        0.290195    1.045280    1.219520
    2          8             0       -0.016884    2.258840    0.298859
    3          8             0       -0.418031   -0.432795   -1.055650
    4          8             0        2.564470   -0.764513   -0.015028
    5         15             0       -1.635829   -1.681031   -0.739022
    6         20             0        0.583304   -1.375369    0.982184
    7         20             0        1.367568    0.932255   -0.886285
    8         20             0       -1.860642    0.923617    0.288557
    9          1             0        3.374820   -1.249087   -0.185414
 ---------------------------------------------------------------------

 SCF Done:  E(RB+HF-LYP) =  -2675.63814900     A.U. after    9 cycles

 The electronic state is 1-A.
 Alpha  occ. eigenvalues -- -145.33887-145.33797-145.33262 -77.01424 -19.10346
 Alpha  occ. eigenvalues --  -19.10017 -19.09230 -19.06327 -15.41010 -15.40922
 Alpha  occ. eigenvalues --  -15.40423 -12.54199 -12.54188 -12.54135 -12.54088
 Alpha  occ. eigenvalues --  -12.54083 -12.53984 -12.53631 -12.53593 -12.53471
 Alpha  occ. eigenvalues --   -6.47968  -4.64438  -4.63919  -4.63782  -1.78649
 Alpha  occ. eigenvalues --   -1.78486  -1.78046  -1.07694  -1.06759  -1.06426
 Alpha  occ. eigenvalues --   -1.06098  -1.05950  -1.05765  -1.05580  -1.05491
 Alpha  occ. eigenvalues --   -1.05142  -0.93076  -0.90621  -0.85725  -0.74112
 Alpha  occ. eigenvalues --   -0.47028  -0.42743  -0.34939  -0.32334  -0.31949
 Alpha  occ. eigenvalues --   -0.29128  -0.28621  -0.28044  -0.27059  -0.26398
 Alpha  occ. eigenvalues --   -0.20527  -0.18922  -0.12320  -0.12155
 Alpha virt. eigenvalues --   -0.06777  -0.05521  -0.05092  -0.00889  -0.00019
 Alpha virt. eigenvalues --    0.01149   0.01658   0.02660   0.03280   0.03828
 Alpha virt. eigenvalues --    0.04581   0.05113   0.07657   0.08119   0.09140

 Mulliken atomic charges:
              1
     1  O   -0.607994
     2  O   -0.579379
     3  O   -0.883735
     4  O   -0.854045
     5  P   -0.206655
     6  Ca   0.911996
     7  Ca   1.065828
     8  Ca   0.863562
     9  H    0.290422
 Sum of Mulliken charges=   0.00000

 Dipole moment (field-independent basis, Debye):
    X=     4.8446    Y=     4.0806    Z=    -0.8850  Tot=     6.3957
 Quadrupole moment (field-independent basis, Debye-Ang):
   XX=   -76.2873   YY=   -90.7374   ZZ=   -82.3356
   XY=   -13.8573   XZ=   -10.9728   YZ=   -17.6229

 Normal termination of Gaussian 03 at Mon May  4 20:10:45 2015.
