 Gaussian 03, Revision E.01,
 Gaussian 03:  EM64T-G03RevE.01 11-Sep-2007

 -------------------------------------
 # b3lyp/6-31G(d,p) pop=(ReadRadii,MK)
 -------------------------------------

 ----------
 Ca3PO4_125
 ----------
 Symbolic Z-matrix:
 Charge =  0 Multiplicity = 1

                         Standard orientation:
 ---------------------------------------------------------------------
 Center     Atomic     Atomic              Coordinates (Angstroms)
 Number     Number      Type              X           Y           Z
 ---------------------------------------------------------------------
    1          8             0       -2.071449    0.014173    0.993344
    2          8             0        0.011745   -1.549439   -0.699574
    3          8             0       -0.971602    1.048621    0.693351
    4          8             0        1.795691   -0.092084    0.397128
    5         15             0        1.577451   -1.058608   -0.942554
    6         20             0       -0.064117   -0.898384    1.535109
    7         20             0        0.936902    2.049611   -0.075591
    8         20             0       -1.675109   -0.013363   -1.282661
    9          1             0        2.269612   -2.248328   -0.472812
 ---------------------------------------------------------------------

 SCF Done:  E(RB+HF-LYP) =  -2675.64974183     A.U. after   12 cycles

 The electronic state is 1-A.
 Alpha  occ. eigenvalues -- -145.36509-145.35819-145.35716 -77.10757 -19.12293
 Alpha  occ. eigenvalues --  -19.11889 -19.09298 -19.09279 -15.43565 -15.42903
 Alpha  occ. eigenvalues --  -15.42798 -12.56776 -12.56708 -12.56655 -12.56085
 Alpha  occ. eigenvalues --  -12.56080 -12.56003 -12.55992 -12.55936 -12.55902
 Alpha  occ. eigenvalues --   -6.56543  -4.72942  -4.72806  -4.72303  -1.80823
 Alpha  occ. eigenvalues --   -1.80487  -1.80194  -1.09536  -1.08515  -1.08440
 Alpha  occ. eigenvalues --   -1.08328  -1.08156  -1.07853  -1.07769  -1.07518
 Alpha  occ. eigenvalues --   -1.07372  -0.95524  -0.93385  -0.88503  -0.75934
 Alpha  occ. eigenvalues --   -0.53798  -0.39278  -0.37692  -0.37328  -0.35502
 Alpha  occ. eigenvalues --   -0.34338  -0.33639  -0.28961  -0.28219  -0.25938
 Alpha  occ. eigenvalues --   -0.22358  -0.20902  -0.18893  -0.12007
 Alpha virt. eigenvalues --   -0.08099  -0.07628  -0.02798  -0.01715  -0.00248
 Alpha virt. eigenvalues --    0.00263   0.00705   0.01481   0.01845   0.02839
 Alpha virt. eigenvalues --    0.03644   0.05584   0.07214   0.07540   0.07748

 Mulliken atomic charges:
              1
     1  O   -0.554368
     2  O   -0.841526
     3  O   -0.617720
     4  O   -0.839755
     5  P    0.692616
     6  Ca   1.078262
     7  Ca   0.411610
     8  Ca   0.794347
     9  H   -0.123465
 Sum of Mulliken charges=   0.00000

 Dipole moment (field-independent basis, Debye):
    X=    -1.3344    Y=    -3.2382    Z=     4.0393  Tot=     5.3463
 Quadrupole moment (field-independent basis, Debye-Ang):
   XX=   -95.9951   YY=   -93.2708   ZZ=   -82.9285
   XY=     8.4307   XZ=     9.7730   YZ=    -6.1427

 Normal termination of Gaussian 03 at Mon May  4 20:10:04 2015.
