 Gaussian 03, Revision E.01,
 Gaussian 03:  EM64T-G03RevE.01 11-Sep-2007

 -------------------------------------
 # b3lyp/6-31G(d,p) pop=(ReadRadii,MK)
 -------------------------------------

 ----------
 Ca3PO4_145
 ----------
 Symbolic Z-matrix:
 Charge =  0 Multiplicity = 1

                         Standard orientation:
 ---------------------------------------------------------------------
 Center     Atomic     Atomic              Coordinates (Angstroms)
 Number     Number      Type              X           Y           Z
 ---------------------------------------------------------------------
    1          8             0       -1.015673    0.681742   -1.305170
    2          8             0       -1.015483    0.704400    1.292420
    3          8             0        1.013873    1.454173   -0.013237
    4          8             0        0.241626   -1.763041    0.016208
    5         15             0       -0.599563    1.687855   -0.015450
    6         20             0        1.202010   -0.318181    1.493200
    7         20             0       -1.795946   -1.000816    0.008320
    8         20             0        1.203769   -0.345869   -1.486300
    9          1             0        3.002047   -0.638708    0.005587
 ---------------------------------------------------------------------

 SCF Done:  E(RB+HF-LYP) =  -2675.79154624     A.U. after   10 cycles

 The electronic state is 1-A.
 Alpha  occ. eigenvalues -- -145.32923-145.32657-145.32655 -77.09241 -19.05726
 Alpha  occ. eigenvalues --  -19.05720 -19.05065 -19.00316 -15.40033 -15.39703
 Alpha  occ. eigenvalues --  -15.39700 -12.53200 -12.53198 -12.53120 -12.52921
 Alpha  occ. eigenvalues --  -12.52920 -12.52831 -12.52830 -12.52812 -12.52811
 Alpha  occ. eigenvalues --   -6.54416  -4.70776  -4.70771  -4.70228  -1.77720
 Alpha  occ. eigenvalues --   -1.77267  -1.77077  -1.06416  -1.05658  -1.05447
 Alpha  occ. eigenvalues --   -1.05159  -1.04555  -1.04480  -1.04320  -1.04217
 Alpha  occ. eigenvalues --   -1.04032  -0.91480  -0.84772  -0.84585  -0.75234
 Alpha  occ. eigenvalues --   -0.46899  -0.34888  -0.34810  -0.32877  -0.27686
 Alpha  occ. eigenvalues --   -0.27675  -0.22805  -0.22708  -0.21951  -0.21881
 Alpha  occ. eigenvalues --   -0.20211  -0.19224  -0.19008  -0.15063
 Alpha virt. eigenvalues --   -0.07072  -0.04875  -0.04310  -0.00488   0.01172
 Alpha virt. eigenvalues --    0.02373   0.02630   0.03248   0.03580   0.04860
 Alpha virt. eigenvalues --    0.06056   0.07415   0.08755   0.10636   0.11259

 Mulliken atomic charges:
              1
     1  O   -0.853069
     2  O   -0.853333
     3  O   -0.822647
     4  O   -0.923329
     5  P    1.001543
     6  Ca   0.973288
     7  Ca   0.913793
     8  Ca   0.972480
     9  H   -0.408727
 Sum of Mulliken charges=   0.00000

 Dipole moment (field-independent basis, Debye):
    X=    -3.3635    Y=    -5.7120    Z=     0.0509  Tot=     6.6290
 Quadrupole moment (field-independent basis, Debye-Ang):
   XX=   -76.8580   YY=   -99.2962   ZZ=   -57.8628
   XY=    15.5089   XZ=    -0.1361   YZ=     0.3874

 Normal termination of Gaussian 03 at Mon May  4 20:10:18 2015.
