 Gaussian 03, Revision E.01,
 Gaussian 03:  EM64T-G03RevE.01 11-Sep-2007

 -------------------------------------
 # b3lyp/6-31G(d,p) pop=(ReadRadii,MK)
 -------------------------------------

 ----------
 Ca3PO4_191
 ----------
 Symbolic Z-matrix:
 Charge =  0 Multiplicity = 1

                         Standard orientation:
 ---------------------------------------------------------------------
 Center     Atomic     Atomic              Coordinates (Angstroms)
 Number     Number      Type              X           Y           Z
 ---------------------------------------------------------------------
    1          8             0        1.288154   -1.822529    0.630832
    2          8             0        2.461373   -1.368147   -0.168824
    3          8             0       -0.383317   -0.253334   -0.700208
    4          8             0        0.646702    0.677973    1.268900
    5         15             0        0.063183   -0.761433    0.840619
    6         20             0        1.971110    0.710137   -0.799654
    7         20             0       -0.978272    2.072578    0.221575
    8         20             0       -2.496287   -1.153044   -0.467194
    9          1             0       -2.982070    0.956348    0.050609
 ---------------------------------------------------------------------

 SCF Done:  E(RB+HF-LYP) =  -2675.57555398     A.U. after   12 cycles

 The electronic state is 1-A.
 Alpha  occ. eigenvalues -- -145.40516-145.37926-145.36562 -77.14848 -19.16044
 Alpha  occ. eigenvalues --  -19.11599 -19.10708 -19.09351 -15.47610 -15.45021
 Alpha  occ. eigenvalues --  -15.43666 -12.60819 -12.60742 -12.60708 -12.58224
 Alpha  occ. eigenvalues --  -12.58148 -12.58128 -12.56856 -12.56843 -12.56739
 Alpha  occ. eigenvalues --   -6.60323  -4.76701  -4.76622  -4.76194  -1.84881
 Alpha  occ. eigenvalues --   -1.82349  -1.81099  -1.12555  -1.12303  -1.12037
 Alpha  occ. eigenvalues --   -1.10111  -1.09925  -1.09539  -1.08912  -1.08623
 Alpha  occ. eigenvalues --   -1.08489  -1.01880  -0.95577  -0.90367  -0.78530
 Alpha  occ. eigenvalues --   -0.52686  -0.42889  -0.40577  -0.40238  -0.35962
 Alpha  occ. eigenvalues --   -0.33846  -0.32451  -0.29942  -0.27260  -0.26600
 Alpha  occ. eigenvalues --   -0.23633  -0.21189  -0.18873  -0.12933
 Alpha virt. eigenvalues --   -0.10345  -0.06932  -0.03807  -0.02299  -0.01688
 Alpha virt. eigenvalues --   -0.01026   0.00297   0.00759   0.01447   0.02703
 Alpha virt. eigenvalues --    0.03968   0.04850   0.05146   0.07012   0.08459

 Mulliken atomic charges:
              1
     1  O   -0.353301
     2  O   -0.509717
     3  O   -0.873112
     4  O   -0.774985
     5  P    0.906522
     6  Ca   0.654405
     7  Ca   0.662613
     8  Ca   0.664997
     9  H   -0.377422
 Sum of Mulliken charges=   0.00000

 Dipole moment (field-independent basis, Debye):
    X=    -4.3416    Y=     1.8363    Z=    -3.0426  Tot=     5.6106
 Quadrupole moment (field-independent basis, Debye-Ang):
   XX=   -86.8946   YY=   -99.7071   ZZ=   -90.9513
   XY=    15.2089   XZ=    -4.6009   YZ=     5.6106

 Normal termination of Gaussian 03 at Mon May  4 20:11:25 2015.
