 Gaussian 03, Revision E.01,
 Gaussian 03:  EM64T-G03RevE.01 11-Sep-2007

 -------------------------------------
 # b3lyp/6-31G(d,p) pop=(ReadRadii,MK)
 -------------------------------------

 ----------
 Ca3PO4_199
 ----------
 Symbolic Z-matrix:
 Charge =  0 Multiplicity = 1

                         Standard orientation:
 ---------------------------------------------------------------------
 Center     Atomic     Atomic              Coordinates (Angstroms)
 Number     Number      Type              X           Y           Z
 ---------------------------------------------------------------------
    1          8             0       -4.005318    0.441086   -0.481919
    2          8             0        2.260842    0.251008    0.939866
    3          8             0        0.261017   -0.286865   -0.513931
    4          8             0       -3.881298   -0.982725    0.040667
    5         15             0        0.736053   -0.420305    1.276151
    6         20             0       -1.885938    0.194522    0.140658
    7         20             0        2.299732   -1.469310   -0.677186
    8         20             0        1.395742    1.894610   -0.380940
    9          1             0       -4.313458   -1.471879   -0.670316
 ---------------------------------------------------------------------

 SCF Done:  E(RB+HF-LYP) =  -2675.55582901     A.U. after   12 cycles

 The electronic state is 1-A.
 Alpha  occ. eigenvalues -- -145.38694-145.37627-145.35246 -77.08162 -19.17966
 Alpha  occ. eigenvalues --  -19.10394 -19.10382 -19.08918 -15.45761 -15.44722
 Alpha  occ. eigenvalues --  -15.42455 -12.58954 -12.58909 -12.58864 -12.57926
 Alpha  occ. eigenvalues --  -12.57875 -12.57794 -12.55677 -12.55655 -12.55454
 Alpha  occ. eigenvalues --   -6.54431  -4.70963  -4.70569  -4.70068  -1.83035
 Alpha  occ. eigenvalues --   -1.82066  -1.80101  -1.10794  -1.10580  -1.10360
 Alpha  occ. eigenvalues --   -1.09729  -1.09483  -1.09331  -1.08697  -1.07956
 Alpha  occ. eigenvalues --   -1.07788  -1.01758  -0.91288  -0.87115  -0.79152
 Alpha  occ. eigenvalues --   -0.51161  -0.47864  -0.37823  -0.35701  -0.35495
 Alpha  occ. eigenvalues --   -0.34862  -0.34276  -0.29427  -0.27379  -0.25232
 Alpha  occ. eigenvalues --   -0.23051  -0.20191  -0.14615  -0.13867
 Alpha virt. eigenvalues --   -0.09815  -0.05993  -0.03949  -0.02399  -0.01650
 Alpha virt. eigenvalues --   -0.01093   0.00179   0.00653   0.01265   0.01923
 Alpha virt. eigenvalues --    0.02399   0.05081   0.05881   0.07019   0.07870

 Mulliken atomic charges:
              1
     1  O   -0.512522
     2  O   -0.806242
     3  O   -0.882379
     4  O   -0.440123
     5  P    0.187281
     6  Ca   1.025468
     7  Ca   0.637361
     8  Ca   0.446876
     9  H    0.344279
 Sum of Mulliken charges=   0.00000

 Dipole moment (field-independent basis, Debye):
    X=     2.7209    Y=    -1.5867    Z=    -2.0128  Tot=     3.7379
 Quadrupole moment (field-independent basis, Debye-Ang):
   XX=  -107.0958   YY=   -81.8402   ZZ=   -98.5527
   XY=     3.1150   XZ=    -4.3818   YZ=     5.5271

 Normal termination of Gaussian 03 at Mon May  4 20:11:30 2015.
