 Gaussian 03, Revision E.01,
 Gaussian 03:  EM64T-G03RevE.01 11-Sep-2007

 -------------------------------------
 # b3lyp/6-31G(d,p) pop=(ReadRadii,MK)
 -------------------------------------

 ---------
 Ca3PO4_14
 ---------
 Symbolic Z-matrix:
 Charge =  0 Multiplicity = 1

                         Standard orientation:
 ---------------------------------------------------------------------
 Center     Atomic     Atomic              Coordinates (Angstroms)
 Number     Number      Type              X           Y           Z
 ---------------------------------------------------------------------
    1          8             0       -0.599893    1.400659    0.697572
    2          8             0       -2.273410    0.304902   -1.064640
    3          8             0       -2.714730   -0.805875   -0.158294
    4          8             0        0.311009   -0.238601   -0.790628
    5         15             0       -0.807253    1.016459   -0.906139
    6         20             0       -0.991015   -0.907127    1.218870
    7         20             0        1.707441    1.707038    0.420335
    8         20             0        1.968019   -1.703052   -0.493363
    9          1             0        0.636088   -2.472751    1.203150
 ---------------------------------------------------------------------

 SCF Done:  E(RB+HF-LYP) =  -2675.58998559     A.U. after   12 cycles

 The electronic state is 1-A.
 Alpha  occ. eigenvalues -- -145.39470-145.39182-145.35190 -77.13413 -19.14773
 Alpha  occ. eigenvalues --  -19.10813 -19.09268 -19.08727 -15.46566 -15.46271
 Alpha  occ. eigenvalues --  -15.42322 -12.59780 -12.59689 -12.59667 -12.59476
 Alpha  occ. eigenvalues --  -12.59443 -12.59323 -12.55539 -12.55473 -12.55391
 Alpha  occ. eigenvalues --   -6.58815  -4.75201  -4.75121  -4.74611  -1.83872
 Alpha  occ. eigenvalues --   -1.83545  -1.79918  -1.11665  -1.11327  -1.11194
 Alpha  occ. eigenvalues --   -1.11028  -1.10939  -1.10642  -1.08134  -1.07547
 Alpha  occ. eigenvalues --   -1.07204  -1.00203  -0.93906  -0.88613  -0.77852
 Alpha  occ. eigenvalues --   -0.52015  -0.42264  -0.39184  -0.38614  -0.34214
 Alpha  occ. eigenvalues --   -0.32675  -0.31223  -0.28799  -0.27277  -0.24978
 Alpha  occ. eigenvalues --   -0.22195  -0.20025  -0.18227  -0.14864
 Alpha virt. eigenvalues --   -0.09386  -0.05340  -0.04862  -0.03428  -0.01413
 Alpha virt. eigenvalues --   -0.00427   0.00252   0.01262   0.02235   0.03026
 Alpha virt. eigenvalues --    0.04639   0.05270   0.06175   0.08225   0.08716

 Mulliken atomic charges:
              1
     1  O   -0.831512
     2  O   -0.373667
     3  O   -0.510824
     4  O   -0.864141
     5  P    0.951583
     6  Ca   0.992843
     7  Ca   0.368569
     8  Ca   0.681424
     9  H   -0.414276
 Sum of Mulliken charges=   0.00000

 Dipole moment (field-independent basis, Debye):
    X=     5.5812    Y=    -2.3588    Z=     3.6868  Tot=     7.0927
 Quadrupole moment (field-independent basis, Debye-Ang):
   XX=  -110.7045   YY=   -78.7792   ZZ=   -83.2668
   XY=    -1.1369   XZ=   -15.4330   YZ=     3.3040

 Normal termination of Gaussian 03 at Mon May  4 20:10:30 2015.
