 Gaussian 03, Revision E.01,
 Gaussian 03:  EM64T-G03RevE.01 11-Sep-2007

 -------------------------------------
 # b3lyp/6-31G(d,p) pop=(ReadRadii,MK)
 -------------------------------------

 ---------
 Ca3PO4_28
 ---------
 Symbolic Z-matrix:
 Charge =  0 Multiplicity = 1

                         Standard orientation:
 ---------------------------------------------------------------------
 Center     Atomic     Atomic              Coordinates (Angstroms)
 Number     Number      Type              X           Y           Z
 ---------------------------------------------------------------------
    1          8             0       -2.095679   -1.562562    0.281055
    2          8             0       -0.872668    0.385736    1.321940
    3          8             0       -0.023965   -0.540922   -0.796961
    4          8             0        2.693568    0.807926    0.076583
    5         15             0       -0.641362   -1.120340    0.712305
    6         20             0        0.728509    1.714662    0.244132
    7         20             0        2.128521   -1.176646   -0.384977
    8         20             0       -2.198182    0.540199   -0.698264
    9          1             0       -1.166585    2.519389   -0.963365
 ---------------------------------------------------------------------

 SCF Done:  E(RB+HF-LYP) =  -2675.74640411     A.U. after   11 cycles

 The electronic state is 1-A.
 Alpha  occ. eigenvalues -- -145.36132-145.34767-145.30732 -77.10758 -19.07461
 Alpha  occ. eigenvalues --  -19.06153 -19.05423 -18.98553 -15.43213 -15.41842
 Alpha  occ. eigenvalues --  -15.37884 -12.56412 -12.56408 -12.56266 -12.55059
 Alpha  occ. eigenvalues --  -12.54996 -12.54904 -12.51116 -12.51053 -12.50916
 Alpha  occ. eigenvalues --   -6.56068  -4.72482  -4.72356  -4.71964  -1.80665
 Alpha  occ. eigenvalues --   -1.79341  -1.75526  -1.08884  -1.08232  -1.07686
 Alpha  occ. eigenvalues --   -1.07239  -1.06991  -1.06348  -1.03545  -1.03289
 Alpha  occ. eigenvalues --   -1.02510  -0.93025  -0.86127  -0.85619  -0.72467
 Alpha  occ. eigenvalues --   -0.47792  -0.35770  -0.35360  -0.34753  -0.29267
 Alpha  occ. eigenvalues --   -0.28036  -0.24710  -0.24120  -0.23280  -0.21126
 Alpha  occ. eigenvalues --   -0.18518  -0.17838  -0.16555  -0.16399
 Alpha virt. eigenvalues --   -0.07335  -0.06018  -0.02064  -0.00485   0.00230
 Alpha virt. eigenvalues --    0.01551   0.02390   0.02951   0.03578   0.04983
 Alpha virt. eigenvalues --    0.05876   0.06384   0.07447   0.09543   0.09871

 Mulliken atomic charges:
              1
     1  O   -0.731728
     2  O   -0.810109
     3  O   -0.881521
     4  O   -0.894974
     5  P    0.914784
     6  Ca   0.951405
     7  Ca   0.948407
     8  Ca   0.921462
     9  H   -0.417727
 Sum of Mulliken charges=   0.00000

 Dipole moment (field-independent basis, Debye):
    X=    -0.8312    Y=    -0.5124    Z=    -4.5660  Tot=     4.6693
 Quadrupole moment (field-independent basis, Debye-Ang):
   XX=   -74.5413   YY=   -79.3348   ZZ=   -83.6633
   XY=   -25.9577   XZ=     6.0060   YZ=     8.9735

 Normal termination of Gaussian 03 at Mon May  4 20:12:10 2015.
