 Gaussian 03, Revision E.01,
 Gaussian 03:  EM64T-G03RevE.01 11-Sep-2007

 -------------------------------------
 # b3lyp/6-31G(d,p) pop=(ReadRadii,MK)
 -------------------------------------

 ---------
 Ca3PO4_33
 ---------
 Symbolic Z-matrix:
 Charge =  0 Multiplicity = 1

                         Standard orientation:
 ---------------------------------------------------------------------
 Center     Atomic     Atomic              Coordinates (Angstroms)
 Number     Number      Type              X           Y           Z
 ---------------------------------------------------------------------
    1          8             0        2.439921   -0.823295   -0.120727
    2          8             0        0.285129   -2.373418   -0.052553
    3          8             0       -2.794238    0.507078   -0.272598
    4          8             0        0.189485    0.077337    0.544198
    5         15             0        1.119911   -1.226489    0.551045
    6         20             0       -1.727839   -1.324288   -0.436749
    7         20             0        2.102102    1.446311   -0.500350
    8         20             0       -1.331238    1.920272    0.389580
    9          1             0        1.378451   -1.550179    1.898170
 ---------------------------------------------------------------------

 SCF Done:  E(RB+HF-LYP) =  -2675.75884456     A.U. after   12 cycles

 The electronic state is 1-A.
 Alpha  occ. eigenvalues -- -145.37273-145.34968-145.34339 -77.18991 -19.12820
 Alpha  occ. eigenvalues --  -19.11006 -19.10571 -18.99802 -15.44419 -15.42151
 Alpha  occ. eigenvalues --  -15.41481 -12.57615 -12.57585 -12.57464 -12.55389
 Alpha  occ. eigenvalues --  -12.55351 -12.55129 -12.54701 -12.54649 -12.54513
 Alpha  occ. eigenvalues --   -6.63889  -4.80305  -4.80157  -4.80101  -1.81773
 Alpha  occ. eigenvalues --   -1.79809  -1.79001  -1.09441  -1.09382  -1.09025
 Alpha  occ. eigenvalues --   -1.07948  -1.07848  -1.07023  -1.06824  -1.06679
 Alpha  occ. eigenvalues --   -1.05764  -1.00435  -0.93093  -0.92881  -0.73871
 Alpha  occ. eigenvalues --   -0.55640  -0.44982  -0.42476  -0.41149  -0.35216
 Alpha  occ. eigenvalues --   -0.32627  -0.30443  -0.29428  -0.29035  -0.27582
 Alpha  occ. eigenvalues --   -0.19789  -0.18147  -0.17977  -0.13660
 Alpha virt. eigenvalues --   -0.07042  -0.06122  -0.03372  -0.01383  -0.00723
 Alpha virt. eigenvalues --   -0.00481   0.01461   0.02192   0.03165   0.03552
 Alpha virt. eigenvalues --    0.03940   0.05596   0.08464   0.09876   0.10243

 Mulliken atomic charges:
              1
     1  O   -0.684779
     2  O   -0.697333
     3  O   -0.894273
     4  O   -0.817499
     5  P    1.140758
     6  Ca   1.016285
     7  Ca   0.366567
     8  Ca   0.670305
     9  H   -0.100029
 Sum of Mulliken charges=   0.00000

 Dipole moment (field-independent basis, Debye):
    X=    -1.2723    Y=    -1.4481    Z=     0.8855  Tot=     2.1213
 Quadrupole moment (field-independent basis, Debye-Ang):
   XX=   -98.2961   YY=   -90.9026   ZZ=   -84.0518
   XY=    13.1935   XZ=    -1.7556   YZ=     6.7444

 Normal termination of Gaussian 03 at Mon May  4 20:12:16 2015.
