 Gaussian 03, Revision E.01,
 Gaussian 03:  EM64T-G03RevE.01 11-Sep-2007

 -------------------------------------
 # b3lyp/6-31G(d,p) pop=(ReadRadii,MK)
 -------------------------------------

 ---------
 Ca3PO4_35
 ---------
 Symbolic Z-matrix:
 Charge =  0 Multiplicity = 1

                         Standard orientation:
 ---------------------------------------------------------------------
 Center     Atomic     Atomic              Coordinates (Angstroms)
 Number     Number      Type              X           Y           Z
 ---------------------------------------------------------------------
    1          8             0        2.911849    0.675360   -0.394104
    2          8             0        1.524480   -1.461090   -0.232791
    3          8             0       -2.755370   -1.352212    0.255985
    4          8             0       -0.832971    1.054049   -0.314464
    5         15             0        2.860949   -0.844105   -0.663206
    6         20             0       -0.626162   -1.114251    0.727257
    7         20             0        1.040529    1.617419    0.600502
    8         20             0       -2.928561    0.550411   -0.670893
    9          1             0        0.585750    0.261141    2.293780
 ---------------------------------------------------------------------

 SCF Done:  E(RB+HF-LYP) =  -2675.72758508     A.U. after    9 cycles

 The electronic state is 1-A.
 Alpha  occ. eigenvalues -- -145.33534-145.32263-145.28527 -77.14556 -19.12670
 Alpha  occ. eigenvalues --  -19.12529 -19.00787 -18.97948 -15.40710 -15.39401
 Alpha  occ. eigenvalues --  -15.35714 -12.53941 -12.53837 -12.53766 -12.52620
 Alpha  occ. eigenvalues --  -12.52551 -12.52436 -12.48914 -12.48898 -12.48751
 Alpha  occ. eigenvalues --   -6.60305  -4.76740  -4.76502  -4.76094  -1.78363
 Alpha  occ. eigenvalues --   -1.77050  -1.73435  -1.06541  -1.05865  -1.05596
 Alpha  occ. eigenvalues --   -1.05025  -1.04693  -1.04008  -1.01508  -1.01135
 Alpha  occ. eigenvalues --   -1.00745  -0.98440  -0.93239  -0.75598  -0.71507
 Alpha  occ. eigenvalues --   -0.51994  -0.41306  -0.38010  -0.37543  -0.30093
 Alpha  occ. eigenvalues --   -0.28843  -0.26108  -0.22960  -0.21703  -0.20594
 Alpha  occ. eigenvalues --   -0.19254  -0.17003  -0.15385  -0.15361
 Alpha virt. eigenvalues --   -0.07397  -0.05444  -0.04597  -0.00434  -0.00203
 Alpha virt. eigenvalues --    0.01098   0.01710   0.02027   0.02887   0.04164
 Alpha virt. eigenvalues --    0.05520   0.06314   0.06527   0.08455   0.10058

 Mulliken atomic charges:
              1
     1  O   -0.674068
     2  O   -0.649453
     3  O   -0.891319
     4  O   -0.956355
     5  P    0.743129
     6  Ca   0.901177
     7  Ca   0.945000
     8  Ca   0.981406
     9  H   -0.399516
 Sum of Mulliken charges=   0.00000

 Dipole moment (field-independent basis, Debye):
    X=    -1.5702    Y=     7.5463    Z=    -1.8851  Tot=     7.9351
 Quadrupole moment (field-independent basis, Debye-Ang):
   XX=   -81.2137   YY=   -71.9454   ZZ=   -84.6745
   XY=   -13.6133   XZ=    13.4378   YZ=     0.5059

 Normal termination of Gaussian 03 at Mon May  4 20:12:08 2015.
