 Gaussian 03, Revision E.01,
 Gaussian 03:  EM64T-G03RevE.01 11-Sep-2007

 -------------------------------------
 # b3lyp/6-31G(d,p) pop=(ReadRadii,MK)
 -------------------------------------

 ---------
 Ca3PO4_50
 ---------
 Symbolic Z-matrix:
 Charge =  0 Multiplicity = 1

                         Standard orientation:
 ---------------------------------------------------------------------
 Center     Atomic     Atomic              Coordinates (Angstroms)
 Number     Number      Type              X           Y           Z
 ---------------------------------------------------------------------
    1          8             0        3.773509   -0.872003   -0.906611
    2          8             0        2.025850    1.070030   -0.707087
    3          8             0       -1.387681    0.186319   -0.339799
    4          8             0        0.453506    0.232724    2.038390
    5         15             0        2.371919   -0.437698   -0.634962
    6         20             0        0.079577    1.695220    0.313595
    7         20             0       -0.371466   -1.453359    0.741231
    8         20             0       -3.492061   -0.171977   -0.746132
    9          1             0        1.178749    0.231239    2.671370
 ---------------------------------------------------------------------

 SCF Done:  E(RB+HF-LYP) =  -2675.74603724     A.U. after    8 cycles

 The electronic state is 1-A.
 Alpha  occ. eigenvalues -- -145.36217-145.35067-145.34990 -77.12817 -19.11643
 Alpha  occ. eigenvalues --  -19.10197 -19.09754 -19.04091 -15.43309 -15.42260
 Alpha  occ. eigenvalues --  -15.42133 -12.56511 -12.56442 -12.56412 -12.55442
 Alpha  occ. eigenvalues --  -12.55438 -12.55330 -12.55281 -12.55272 -12.55223
 Alpha  occ. eigenvalues --   -6.58744  -4.75204  -4.74909  -4.74586  -1.80770
 Alpha  occ. eigenvalues --   -1.79755  -1.79713  -1.08756  -1.08433  -1.08158
 Alpha  occ. eigenvalues --   -1.07609  -1.07328  -1.07315  -1.07227  -1.07021
 Alpha  occ. eigenvalues --   -1.06680  -0.97103  -0.92074  -0.91212  -0.79289
 Alpha  occ. eigenvalues --   -0.49797  -0.42858  -0.38162  -0.36873  -0.35997
 Alpha  occ. eigenvalues --   -0.29519  -0.28351  -0.27719  -0.27368  -0.25469
 Alpha  occ. eigenvalues --   -0.24932  -0.23270  -0.22911  -0.13268
 Alpha virt. eigenvalues --   -0.07874  -0.07476  -0.03778  -0.02940  -0.02630
 Alpha virt. eigenvalues --   -0.00766  -0.00196  -0.00003   0.01588   0.01889
 Alpha virt. eigenvalues --    0.03416   0.04069   0.05555   0.09129   0.09516

 Mulliken atomic charges:
              1
     1  O   -0.511181
     2  O   -0.676415
     3  O   -0.946786
     4  O   -0.831968
     5  P    0.572400
     6  Ca   1.061830
     7  Ca   0.917969
     8  Ca   0.122993
     9  H    0.291158
 Sum of Mulliken charges=   0.00000

 Dipole moment (field-independent basis, Debye):
    X=    -3.3563    Y=     3.0628    Z=     3.2709  Tot=     5.5986
 Quadrupole moment (field-independent basis, Debye-Ang):
   XX=  -124.7404   YY=   -71.0494   ZZ=   -91.0250
   XY=    -1.2632   XZ=    11.2419   YZ=    -1.6044

 Normal termination of Gaussian 03 at Mon May  4 20:12:35 2015.
