 Gaussian 03, Revision E.01,
 Gaussian 03:  EM64T-G03RevE.01 11-Sep-2007

 -------------------------------------
 # b3lyp/6-31G(d,p) pop=(ReadRadii,MK)
 -------------------------------------

 ----------
 Ca3PO4_156
 ----------
 Symbolic Z-matrix:
 Charge =  0 Multiplicity = 1

                         Standard orientation:
 ---------------------------------------------------------------------
 Center     Atomic     Atomic              Coordinates (Angstroms)
 Number     Number      Type              X           Y           Z
 ---------------------------------------------------------------------
    1          8             0        1.068700   -0.262871    1.380010
    2          8             0        0.941114   -2.282522   -0.151597
    3          8             0       -0.720417   -0.331585   -0.300985
    4          8             0        1.567782    1.947148   -0.764874
    5         15             0        0.031487   -1.453781    0.852491
    6         20             0        1.756510   -0.303872   -0.916352
    7         20             0       -2.946280   -0.028235   -0.550409
    8         20             0       -0.070541    1.657519    0.823163
    9          1             0        1.876472    2.737118   -1.215830
 ---------------------------------------------------------------------

 SCF Done:  E(RB+HF-LYP) =  -2675.78580480     A.U. after   11 cycles

 The electronic state is 1-A.
 Alpha  occ. eigenvalues -- -145.36376-145.35381-145.35291 -77.10316 -19.10535
 Alpha  occ. eigenvalues --  -19.08231 -19.06327 -19.05271 -15.43534 -15.42507
 Alpha  occ. eigenvalues --  -15.42402 -12.56716 -12.56706 -12.56572 -12.55694
 Alpha  occ. eigenvalues --  -12.55634 -12.55627 -12.55619 -12.55597 -12.55431
 Alpha  occ. eigenvalues --   -6.55578  -4.72001  -4.71861  -4.71397  -1.80876
 Alpha  occ. eigenvalues --   -1.80070  -1.79944  -1.08736  -1.08443  -1.08395
 Alpha  occ. eigenvalues --   -1.08053  -1.07809  -1.07638  -1.07514  -1.07329
 Alpha  occ. eigenvalues --   -1.06963  -0.92641  -0.91815  -0.86046  -0.85548
 Alpha  occ. eigenvalues --   -0.48068  -0.43817  -0.36268  -0.35007  -0.34397
 Alpha  occ. eigenvalues --   -0.30492  -0.29258  -0.28593  -0.27332  -0.24488
 Alpha  occ. eigenvalues --   -0.23436  -0.21742  -0.18143  -0.13086
 Alpha virt. eigenvalues --   -0.07537  -0.06424  -0.02776  -0.02410  -0.00244
 Alpha virt. eigenvalues --    0.00225   0.00547   0.01392   0.02742   0.03978
 Alpha virt. eigenvalues --    0.04954   0.06634   0.08845   0.09371   0.10446

 Mulliken atomic charges:
              1
     1  O   -0.829489
     2  O   -0.744896
     3  O   -0.904306
     4  O   -0.849497
     5  P    0.956845
     6  Ca   1.012205
     7  Ca   0.224151
     8  Ca   0.840392
     9  H    0.294593
 Sum of Mulliken charges=   0.00000

 Dipole moment (field-independent basis, Debye):
    X=     3.8585    Y=     4.6636    Z=    -4.0524  Tot=     7.2841
 Quadrupole moment (field-independent basis, Debye-Ang):
   XX=   -83.8021   YY=   -96.9003   ZZ=   -84.4077
   XY=    10.7302   XZ=   -10.8699   YZ=     8.8266

 Normal termination of Gaussian 03 at Mon May  4 20:10:37 2015.
