 Gaussian 03, Revision E.01,
 Gaussian 03:  EM64T-G03RevE.01 11-Sep-2007

 -------------------------------------
 # b3lyp/6-31G(d,p) pop=(ReadRadii,MK)
 -------------------------------------

 ----------
 Ca3PO4_136
 ----------
 Symbolic Z-matrix:
 Charge =  0 Multiplicity = 1

                         Standard orientation:
 ---------------------------------------------------------------------
 Center     Atomic     Atomic              Coordinates (Angstroms)
 Number     Number      Type              X           Y           Z
 ---------------------------------------------------------------------
    1          8             0        0.171260   -1.485650   -0.012980
    2          8             0       -2.749100   -0.598519    0.010753
    3          8             0        0.406229    1.307220   -0.007120
    4          8             0       -2.466251    0.930120    0.017816
    5         15             0        1.971779    1.726741   -0.090379
    6         20             0       -1.020650   -0.117822    1.413580
    7         20             0        2.319290   -1.230689   -0.004722
    8         20             0       -1.039280   -0.102876   -1.410040
    9          1             0        2.339029    1.901281    1.311560
 ---------------------------------------------------------------------

 SCF Done:  E(RB+HF-LYP) =  -2675.57960281     A.U. after   10 cycles

 The electronic state is 1-A.
 Alpha  occ. eigenvalues -- -145.35080-145.33089-145.33011 -77.06848 -19.08624
 Alpha  occ. eigenvalues --  -19.05001 -19.04876 -19.01532 -15.42275 -15.40094
 Alpha  occ. eigenvalues --  -15.40023 -12.55485 -12.55446 -12.55281 -12.53328
 Alpha  occ. eigenvalues --  -12.53257 -12.53239 -12.53189 -12.53164 -12.53118
 Alpha  occ. eigenvalues --   -6.53339  -4.69671  -4.69371  -4.69246  -1.79848
 Alpha  occ. eigenvalues --   -1.77689  -1.77356  -1.07738  -1.07445  -1.07294
 Alpha  occ. eigenvalues --   -1.06770  -1.05328  -1.04929  -1.04625  -1.04393
 Alpha  occ. eigenvalues --   -1.04270  -0.90443  -0.88305  -0.76340  -0.68566
 Alpha  occ. eigenvalues --   -0.53357  -0.36992  -0.31996  -0.30758  -0.28544
 Alpha  occ. eigenvalues --   -0.27196  -0.26283  -0.22304  -0.21904  -0.21533
 Alpha  occ. eigenvalues --   -0.19306  -0.14883  -0.14194  -0.13989
 Alpha virt. eigenvalues --   -0.08014  -0.06294  -0.05677  -0.02470  -0.00346
 Alpha virt. eigenvalues --    0.00502   0.01717   0.02086   0.03281   0.04284
 Alpha virt. eigenvalues --    0.05223   0.05893   0.07394   0.07712   0.10459

 Mulliken atomic charges:
              1
     1  O   -0.925864
     2  O   -0.575451
     3  O   -0.762704
     4  O   -0.578272
     5  P    0.177202
     6  Ca   1.101067
     7  Ca   0.600931
     8  Ca   1.071206
     9  H   -0.108115
 Sum of Mulliken charges=   0.00000

 Dipole moment (field-independent basis, Debye):
    X=     4.2784    Y=    -3.6617    Z=    -0.0023  Tot=     5.6314
 Quadrupole moment (field-independent basis, Debye-Ang):
   XX=  -107.7295   YY=   -96.1431   ZZ=   -50.7446
   XY=    -9.3384   XZ=     0.4991   YZ=     1.0901

 Normal termination of Gaussian 03 at Mon May  4 20:10:04 2015.
