 Gaussian 03, Revision E.01,
 Gaussian 03:  EM64T-G03RevE.01 11-Sep-2007

 -------------------------------------
 # b3lyp/6-31G(d,p) pop=(ReadRadii,MK)
 -------------------------------------

 ----------
 Ca3PO4_114
 ----------
 Symbolic Z-matrix:
 Charge =  0 Multiplicity = 1

                         Standard orientation:
 ---------------------------------------------------------------------
 Center     Atomic     Atomic              Coordinates (Angstroms)
 Number     Number      Type              X           Y           Z
 ---------------------------------------------------------------------
    1          8             0       -2.528330   -0.180325   -0.512369
    2          8             0        0.654208   -0.046282   -0.388043
    3          8             0       -2.198300   -0.728082    0.919619
    4          8             0        0.576432    2.465890    0.033933
    5         15             0        1.379330    1.428610   -0.853065
    6         20             0        2.395890   -1.260630    0.618499
    7         20             0       -0.917477   -1.751550   -0.621489
    8         20             0       -1.246870    1.279100    0.624207
    9          1             0        2.647140    1.142820   -0.053485
 ---------------------------------------------------------------------

 SCF Done:  E(RB+HF-LYP) =  -2675.64305594     A.U. after   11 cycles

 The electronic state is 1-A.
 Alpha  occ. eigenvalues -- -145.37739-145.35818-145.34246 -77.11914 -19.11460
 Alpha  occ. eigenvalues --  -19.09257 -19.09187 -19.08675 -15.44888 -15.42913
 Alpha  occ. eigenvalues --  -15.41420 -12.58065 -12.58036 -12.57956 -12.56112
 Alpha  occ. eigenvalues --  -12.56080 -12.55993 -12.54642 -12.54621 -12.54426
 Alpha  occ. eigenvalues --   -6.57650  -4.74019  -4.73910  -4.73414  -1.82224
 Alpha  occ. eigenvalues --   -1.80396  -1.79110  -1.09747  -1.09660  -1.09513
 Alpha  occ. eigenvalues --   -1.08740  -1.08053  -1.07966  -1.07076  -1.06916
 Alpha  occ. eigenvalues --   -1.06498  -0.94578  -0.91815  -0.89582  -0.73175
 Alpha  occ. eigenvalues --   -0.54365  -0.40751  -0.38659  -0.35513  -0.32959
 Alpha  occ. eigenvalues --   -0.31745  -0.31287  -0.29319  -0.28306  -0.26987
 Alpha  occ. eigenvalues --   -0.20033  -0.19559  -0.18297  -0.14256
 Alpha virt. eigenvalues --   -0.07814  -0.05365  -0.03605  -0.02760  -0.01004
 Alpha virt. eigenvalues --   -0.00452   0.00870   0.02733   0.02926   0.03559
 Alpha virt. eigenvalues --    0.04343   0.05613   0.06153   0.07758   0.08237

 Mulliken atomic charges:
              1
     1  O   -0.583246
     2  O   -0.894506
     3  O   -0.578832
     4  O   -0.746870
     5  P    0.770329
     6  Ca   0.190644
     7  Ca   0.981555
     8  Ca   1.101568
     9  H   -0.240642
 Sum of Mulliken charges=   0.00000

 Dipole moment (field-independent basis, Debye):
    X=    -0.8859    Y=    -0.1483    Z=     0.6112  Tot=     1.0865
 Quadrupole moment (field-independent basis, Debye-Ang):
   XX=   -97.5505   YY=   -90.7813   ZZ=   -85.9714
   XY=    -6.9815   XZ=     1.9223   YZ=    14.4918

 Normal termination of Gaussian 03 at Mon May  4 20:09:36 2015.
