 Gaussian 03, Revision E.01,
 Gaussian 03:  EM64T-G03RevE.01 11-Sep-2007

 -------------------------------------
 # b3lyp/6-31G(d,p) pop=(ReadRadii,MK)
 -------------------------------------

 ---------
 Ca3PO4_36
 ---------
 Symbolic Z-matrix:
 Charge =  0 Multiplicity = 1

                         Standard orientation:
 ---------------------------------------------------------------------
 Center     Atomic     Atomic              Coordinates (Angstroms)
 Number     Number      Type              X           Y           Z
 ---------------------------------------------------------------------
    1          8             0       -1.274921    1.186410   -0.336291
    2          8             0       -0.000181   -1.927309   -0.501795
    3          8             0       -0.000328   -1.315179    0.941875
    4          8             0        1.275809    1.186032   -0.334977
    5         15             0        0.001020    1.512361   -1.346399
    6         20             0        2.011954   -0.980017   -0.235526
    7         20             0       -2.012176   -0.979360   -0.236433
    8         20             0       -0.000754    1.025171    1.637271
    9          1             0        0.001203    2.959051   -1.260699
 ---------------------------------------------------------------------

 SCF Done:  E(RB+HF-LYP) =  -2675.64625828     A.U. after   13 cycles

 The electronic state is 1-A.
 Alpha  occ. eigenvalues -- -145.36264-145.36264-145.36208 -77.10803 -19.12648
 Alpha  occ. eigenvalues --  -19.12121 -19.09313 -19.09308 -15.43362 -15.43362
 Alpha  occ. eigenvalues --  -15.43278 -12.56573 -12.56573 -12.56494 -12.56494
 Alpha  occ. eigenvalues --  -12.56462 -12.56462 -12.56457 -12.56452 -12.56372
 Alpha  occ. eigenvalues --   -6.56571  -4.72989  -4.72829  -4.72326  -1.80819
 Alpha  occ. eigenvalues --   -1.80796  -1.80653  -1.09466  -1.08703  -1.08682
 Alpha  occ. eigenvalues --   -1.08547  -1.08414  -1.08133  -1.08002  -1.07965
 Alpha  occ. eigenvalues --   -1.07789  -0.94944  -0.93480  -0.88635  -0.76476
 Alpha  occ. eigenvalues --   -0.53869  -0.39106  -0.37957  -0.36787  -0.35585
 Alpha  occ. eigenvalues --   -0.34759  -0.33239  -0.28867  -0.28375  -0.26315
 Alpha  occ. eigenvalues --   -0.23769  -0.20834  -0.18827  -0.11775
 Alpha virt. eigenvalues --   -0.08659  -0.07987  -0.02960  -0.02578  -0.00211
 Alpha virt. eigenvalues --   -0.00187   0.00649   0.01134   0.02010   0.02521
 Alpha virt. eigenvalues --    0.02637   0.06016   0.06219   0.07073   0.08430

 Mulliken atomic charges:
              1
     1  O   -0.843479
     2  O   -0.584286
     3  O   -0.591133
     4  O   -0.843547
     5  P    0.684100
     6  Ca   0.857309
     7  Ca   0.856763
     8  Ca   0.580498
     9  H   -0.116224
 Sum of Mulliken charges=   0.00000

 Dipole moment (field-independent basis, Debye):
    X=     0.0084    Y=    -2.1466    Z=    -0.9284  Tot=     2.3388
 Quadrupole moment (field-independent basis, Debye-Ang):
   XX=   -82.6214   YY=   -96.6287   ZZ=   -95.6329
   XY=    -0.0129   XZ=     0.0111   YZ=     8.7310

 Normal termination of Gaussian 03 at Mon May  4 20:12:28 2015.
