 Gaussian 03, Revision E.01,
 Gaussian 03:  EM64T-G03RevE.01 11-Sep-2007

 -------------------------------------
 # b3lyp/6-31G(d,p) pop=(ReadRadii,MK)
 -------------------------------------

 ----------
 Ca3PO4_155
 ----------
 Symbolic Z-matrix:
 Charge =  0 Multiplicity = 1

                         Standard orientation:
 ---------------------------------------------------------------------
 Center     Atomic     Atomic              Coordinates (Angstroms)
 Number     Number      Type              X           Y           Z
 ---------------------------------------------------------------------
    1          8             0       -2.660631    0.272811   -0.738873
    2          8             0       -1.332821    0.504427   -1.375620
    3          8             0       -2.419881    0.269837    0.724767
    4          8             0        1.273390   -1.304560   -0.527379
    5         15             0        1.118449   -0.739604    1.418530
    6         20             0        2.840329    0.559004   -0.573259
    7         20             0       -1.133480   -1.482871   -0.177554
    8         20             0       -0.577584    1.688509    0.475343
    9          1             0        1.757510   -2.138919   -0.431682
 ---------------------------------------------------------------------

 SCF Done:  E(RB+HF-LYP) =  -2675.47408370     A.U. after   10 cycles

 The electronic state is 1-A.
 Alpha  occ. eigenvalues -- -145.37383-145.36935-145.36719 -77.02800 -19.22108
 Alpha  occ. eigenvalues --  -19.16772 -19.13188 -19.13166 -15.44435 -15.44073
 Alpha  occ. eigenvalues --  -15.43760 -12.57634 -12.57593 -12.57532 -12.57249
 Alpha  occ. eigenvalues --  -12.57210 -12.57160 -12.56973 -12.56909 -12.56865
 Alpha  occ. eigenvalues --   -6.49650  -4.66431  -4.65381  -4.65312  -1.81786
 Alpha  occ. eigenvalues --   -1.81374  -1.81150  -1.11921  -1.09413  -1.09200
 Alpha  occ. eigenvalues --   -1.08947  -1.08850  -1.08705  -1.08674  -1.08622
 Alpha  occ. eigenvalues --   -1.08460  -1.04918  -0.98184  -0.88993  -0.73540
 Alpha  occ. eigenvalues --   -0.52978  -0.45846  -0.43340  -0.41112  -0.40688
 Alpha  occ. eigenvalues --   -0.36122  -0.33481  -0.28492  -0.27810  -0.25230
 Alpha  occ. eigenvalues --   -0.20842  -0.18527  -0.17655  -0.12847
 Alpha virt. eigenvalues --   -0.07840  -0.07381  -0.04111  -0.03051  -0.01179
 Alpha virt. eigenvalues --   -0.00568   0.00447   0.01046   0.01500   0.02532
 Alpha virt. eigenvalues --    0.03619   0.04144   0.05213   0.06627   0.07879

 Mulliken atomic charges:
              1
     1  O   -0.148796
     2  O   -0.524382
     3  O   -0.531435
     4  O   -0.722335
     5  P   -0.490504
     6  Ca   0.209464
     7  Ca   0.960708
     8  Ca   0.909344
     9  H    0.337937
 Sum of Mulliken charges=   0.00000

 Dipole moment (field-independent basis, Debye):
    X=    -1.0046    Y=    -1.5694    Z=    -0.2118  Tot=     1.8754
 Quadrupole moment (field-independent basis, Debye-Ang):
   XX=  -101.6970   YY=   -73.4535   ZZ=  -101.8729
   XY=     2.9399   XZ=    -4.0224   YZ=    14.9283

 Normal termination of Gaussian 03 at Mon May  4 20:10:33 2015.
