 Gaussian 03, Revision E.01,
 Gaussian 03:  EM64T-G03RevE.01 11-Sep-2007

 -------------------------------------
 # b3lyp/6-31G(d,p) pop=(ReadRadii,MK)
 -------------------------------------

 ----------
 Ca3PO4_213
 ----------
 Symbolic Z-matrix:
 Charge =  0 Multiplicity = 1

                         Standard orientation:
 ---------------------------------------------------------------------
 Center     Atomic     Atomic              Coordinates (Angstroms)
 Number     Number      Type              X           Y           Z
 ---------------------------------------------------------------------
    1          8             0       -4.454390    1.241330    0.088114
    2          8             0       -4.461220   -1.237890   -0.083676
    3          8             0        3.442820   -0.775883    0.137448
    4          8             0        3.441270    0.774956   -0.137404
    5         15             0       -5.373970    0.004049    0.005613
    6         20             0        1.342000   -0.003287   -0.005506
    7         20             0       -2.414730   -0.003600   -0.004967
    8         20             0        5.533460    0.002463    0.004088
    9          1             0        7.647070    0.007626    0.007671
 ---------------------------------------------------------------------

 SCF Done:  E(RB+HF-LYP) =  -2675.61663717     A.U. after   13 cycles

 The electronic state is 1-A.
 Alpha  occ. eigenvalues -- -145.38266-145.35745-145.34759 -77.15473 -19.13463
 Alpha  occ. eigenvalues --  -19.13458 -19.11374 -19.11343 -15.45458 -15.42984
 Alpha  occ. eigenvalues --  -15.42091 -12.58680 -12.58617 -12.58480 -12.56212
 Alpha  occ. eigenvalues --  -12.56157 -12.55977 -12.55338 -12.55281 -12.55026
 Alpha  occ. eigenvalues --   -6.61396  -4.77827  -4.77564  -4.77189  -1.82903
 Alpha  occ. eigenvalues --   -1.80596  -1.79843  -1.10716  -1.10356  -1.10314
 Alpha  occ. eigenvalues --   -1.08570  -1.08481  -1.08220  -1.07956  -1.07675
 Alpha  occ. eigenvalues --   -1.06823  -1.00014  -0.94034  -0.93596  -0.75481
 Alpha  occ. eigenvalues --   -0.52341  -0.41019  -0.39493  -0.38933  -0.35100
 Alpha  occ. eigenvalues --   -0.34263  -0.32164  -0.30541  -0.29386  -0.27349
 Alpha  occ. eigenvalues --   -0.23809  -0.21247  -0.19461  -0.16727
 Alpha virt. eigenvalues --   -0.06137  -0.04773  -0.04723  -0.04421  -0.02872
 Alpha virt. eigenvalues --   -0.01535  -0.00924   0.00632   0.01040   0.01925
 Alpha virt. eigenvalues --    0.04634   0.05613   0.06168   0.07342   0.08446

 Mulliken atomic charges:
              1
     1  O   -0.651071
     2  O   -0.651016
     3  O   -0.617469
     4  O   -0.618343
     5  P    0.745223
     6  Ca   0.414712
     7  Ca   0.722928
     8  Ca   0.927796
     9  H   -0.272760
 Sum of Mulliken charges=   0.00000

 Dipole moment (field-independent basis, Debye):
    X=    -1.2486    Y=    -0.0232    Z=    -0.0211  Tot=     1.2490
 Quadrupole moment (field-independent basis, Debye-Ang):
   XX=  -151.6458   YY=   -94.9342   ZZ=   -80.9936
   XY=    -0.1008   XZ=    -0.0317   YZ=    -0.0352

 Normal termination of Gaussian 03 at Mon May  4 20:11:40 2015.
