 Gaussian 03, Revision E.01,
 Gaussian 03:  EM64T-G03RevE.01 11-Sep-2007

 -------------------------------------
 # b3lyp/6-31G(d,p) pop=(ReadRadii,MK)
 -------------------------------------

 ---------
 Ca3PO4_10
 ---------
 Symbolic Z-matrix:
 Charge =  0 Multiplicity = 1

                         Standard orientation:
 ---------------------------------------------------------------------
 Center     Atomic     Atomic              Coordinates (Angstroms)
 Number     Number      Type              X           Y           Z
 ---------------------------------------------------------------------
    1          8             0        2.234869   -1.464481   -0.055373
    2          8             0        0.478153   -0.003937   -1.192101
    3          8             0        2.350480    1.306719   -0.058280
    4          8             0        0.582035   -0.005652    1.228399
    5         15             0        1.632080   -0.052461   -0.027451
    6         20             0       -0.139325   -1.979590    0.040082
    7         20             0        0.026845    1.995830    0.036829
    8         20             0       -3.260650   -0.013051   -0.027000
    9          1             0       -2.182899    2.061951    0.032336
 ---------------------------------------------------------------------

 SCF Done:  E(RB+HF-LYP) =  -2675.73350186     A.U. after   10 cycles

 The electronic state is 1-A.
 Alpha  occ. eigenvalues -- -145.40228-145.37824-145.37066 -77.15486 -19.06767
 Alpha  occ. eigenvalues --  -19.06765 -19.06362 -19.06348 -15.47364 -15.44849
 Alpha  occ. eigenvalues --  -15.44140 -12.60535 -12.60533 -12.60415 -12.58031
 Alpha  occ. eigenvalues --  -12.58030 -12.57952 -12.57336 -12.57330 -12.57208
 Alpha  occ. eigenvalues --   -6.60187  -4.76550  -4.76532  -4.76438  -1.84606
 Alpha  occ. eigenvalues --   -1.82151  -1.81574  -1.12082  -1.12043  -1.11503
 Alpha  occ. eigenvalues --   -1.10336  -1.09563  -1.09481  -1.09413  -1.09125
 Alpha  occ. eigenvalues --   -1.08749  -0.96852  -0.89317  -0.87535  -0.86123
 Alpha  occ. eigenvalues --   -0.46700  -0.37394  -0.37289  -0.36829  -0.30061
 Alpha  occ. eigenvalues --   -0.29739  -0.29627  -0.28476  -0.26295  -0.24889
 Alpha  occ. eigenvalues --   -0.23200  -0.21966  -0.20609  -0.15880
 Alpha virt. eigenvalues --   -0.08408  -0.05580  -0.04790  -0.03525  -0.01063
 Alpha virt. eigenvalues --   -0.00234   0.01196   0.01853   0.02967   0.04086
 Alpha virt. eigenvalues --    0.04633   0.05717   0.07705   0.09510   0.09990

 Mulliken atomic charges:
              1
     1  O   -0.696508
     2  O   -0.829315
     3  O   -0.701708
     4  O   -0.825785
     5  P    1.404544
     6  Ca   0.806714
     7  Ca   1.054290
     8  Ca   0.212800
     9  H   -0.425032
 Sum of Mulliken charges=   0.00000

 Dipole moment (field-independent basis, Debye):
    X=    -8.0546    Y=     2.1656    Z=     0.2577  Tot=     8.3446
 Quadrupole moment (field-independent basis, Debye-Ang):
   XX=  -105.0876   YY=   -62.1044   ZZ=   -93.3079
   XY=    -3.2026   XZ=     0.8298   YZ=    -0.0601

 Normal termination of Gaussian 03 at Mon May  4 20:09:35 2015.
