 Gaussian 03, Revision E.01,
 Gaussian 03:  EM64T-G03RevE.01 11-Sep-2007

 -------------------------------------
 # b3lyp/6-31G(d,p) pop=(ReadRadii,MK)
 -------------------------------------

 ----------
 Ca3PO4_142
 ----------
 Symbolic Z-matrix:
 Charge =  0 Multiplicity = 1

                         Standard orientation:
 ---------------------------------------------------------------------
 Center     Atomic     Atomic              Coordinates (Angstroms)
 Number     Number      Type              X           Y           Z
 ---------------------------------------------------------------------
    1          8             0        0.857017   -0.389714    1.338650
    2          8             0        1.670852    1.843619   -0.625831
    3          8             0       -1.211599   -0.652192   -0.055222
    4          8             0        1.044630   -1.850271   -0.700370
    5         15             0        0.087238   -1.400791    0.418118
    6         20             0        2.559041   -0.072125   -0.396788
    7         20             0       -3.366569    0.030051   -0.389878
    8         20             0       -0.186092    1.637910    0.431675
    9          1             0       -0.323374   -2.516390    1.170220
 ---------------------------------------------------------------------

 SCF Done:  E(RB+HF-LYP) =  -2675.75972573     A.U. after   11 cycles

 The electronic state is 1-A.
 Alpha  occ. eigenvalues -- -145.36970-145.34993-145.33905 -77.18800 -19.12343
 Alpha  occ. eigenvalues --  -19.10812 -19.10194 -18.99139 -15.44126 -15.42086
 Alpha  occ. eigenvalues --  -15.40986 -12.57291 -12.57286 -12.57185 -12.55289
 Alpha  occ. eigenvalues --  -12.55274 -12.55132 -12.54208 -12.54151 -12.54045
 Alpha  occ. eigenvalues --   -6.63739  -4.80105  -4.80038  -4.79961  -1.81432
 Alpha  occ. eigenvalues --   -1.79614  -1.78457  -1.08949  -1.08877  -1.08729
 Alpha  occ. eigenvalues --   -1.07929  -1.07350  -1.06755  -1.06378  -1.06157
 Alpha  occ. eigenvalues --   -1.05336  -1.00125  -0.93203  -0.91961  -0.73189
 Alpha  occ. eigenvalues --   -0.55662  -0.45092  -0.41993  -0.40642  -0.34338
 Alpha  occ. eigenvalues --   -0.32259  -0.30866  -0.30075  -0.28542  -0.26427
 Alpha  occ. eigenvalues --   -0.19102  -0.17407  -0.17141  -0.13705
 Alpha virt. eigenvalues --   -0.07419  -0.06208  -0.02889  -0.01634   0.00001
 Alpha virt. eigenvalues --    0.00091   0.01675   0.02106   0.03504   0.04334
 Alpha virt. eigenvalues --    0.04704   0.05871   0.07865   0.09010   0.11188

 Mulliken atomic charges:
              1
     1  O   -0.763826
     2  O   -0.889892
     3  O   -0.754419
     4  O   -0.693268
     5  P    1.166775
     6  Ca   0.983612
     7  Ca   0.240867
     8  Ca   0.809897
     9  H   -0.099746
 Sum of Mulliken charges=   0.00000

 Dipole moment (field-independent basis, Debye):
    X=     3.9853    Y=    -2.2267    Z=     1.6873  Tot=     4.8670
 Quadrupole moment (field-independent basis, Debye-Ang):
   XX=   -72.6850   YY=   -99.1951   ZZ=   -91.9431
   XY=    -4.1658   XZ=    -0.3339   YZ=     6.1621

 Normal termination of Gaussian 03 at Mon May  4 20:10:16 2015.
