 Gaussian 03, Revision E.01,
 Gaussian 03:  EM64T-G03RevE.01 11-Sep-2007

 -------------------------------------
 # b3lyp/6-31G(d,p) pop=(ReadRadii,MK)
 -------------------------------------

 ----------
 Ca3PO4_206
 ----------
 Symbolic Z-matrix:
 Charge =  0 Multiplicity = 1

                         Standard orientation:
 ---------------------------------------------------------------------
 Center     Atomic     Atomic              Coordinates (Angstroms)
 Number     Number      Type              X           Y           Z
 ---------------------------------------------------------------------
    1          8             0        0.259720   -1.103801    1.485040
    2          8             0        2.008678   -0.538073   -0.999624
    3          8             0       -0.779353    0.038372    1.207060
    4          8             0        0.837123    0.400191   -1.279490
    5         15             0       -2.323562   -0.458741    0.397714
    6         20             0        0.006831   -1.703090   -0.743119
    7         20             0       -0.873243    1.745423   -0.684895
    8         20             0        1.642921    0.648337    0.931223
    9          1             0        0.713882    2.694208    0.666193
 ---------------------------------------------------------------------

 SCF Done:  E(RB+HF-LYP) =  -2675.50772151     A.U. after    8 cycles

 The electronic state is 1-A.
 Alpha  occ. eigenvalues -- -145.36231-145.34682-145.33796 -77.02020 -19.16408
 Alpha  occ. eigenvalues --  -19.11139 -19.10993 -19.10937 -15.43319 -15.41758
 Alpha  occ. eigenvalues --  -15.40896 -12.56521 -12.56481 -12.56401 -12.54982
 Alpha  occ. eigenvalues --  -12.54900 -12.54848 -12.54104 -12.54047 -12.53977
 Alpha  occ. eigenvalues --   -6.48733  -4.65346  -4.64555  -4.64495  -1.80739
 Alpha  occ. eigenvalues --   -1.79284  -1.78443  -1.09127  -1.08427  -1.07790
 Alpha  occ. eigenvalues --   -1.07649  -1.07192  -1.06670  -1.06172  -1.05968
 Alpha  occ. eigenvalues --   -1.05642  -0.97529  -0.94834  -0.79332  -0.74626
 Alpha  occ. eigenvalues --   -0.50019  -0.38049  -0.36791  -0.35632  -0.34011
 Alpha  occ. eigenvalues --   -0.33529  -0.31653  -0.24876  -0.23924  -0.23189
 Alpha  occ. eigenvalues --   -0.20875  -0.19362  -0.16189  -0.13597
 Alpha virt. eigenvalues --   -0.06245  -0.05911  -0.04929  -0.01206  -0.00436
 Alpha virt. eigenvalues --    0.00866   0.01395   0.02060   0.02459   0.02626
 Alpha virt. eigenvalues --    0.04249   0.05177   0.06192   0.07960   0.08428

 Mulliken atomic charges:
              1
     1  O   -0.540182
     2  O   -0.552619
     3  O   -0.501165
     4  O   -0.636900
     5  P   -0.259870
     6  Ca   0.962847
     7  Ca   0.832447
     8  Ca   1.105573
     9  H   -0.410132
 Sum of Mulliken charges=   0.00000

 Dipole moment (field-independent basis, Debye):
    X=     4.5331    Y=     0.9044    Z=    -2.4118  Tot=     5.2138
 Quadrupole moment (field-independent basis, Debye-Ang):
   XX=   -90.8495   YY=   -71.2496   ZZ=   -87.3120
   XY=    -7.6376   XZ=    21.1463   YZ=     3.6579

 Normal termination of Gaussian 03 at Mon May  4 20:11:30 2015.
