 Gaussian 03, Revision E.01,
 Gaussian 03:  EM64T-G03RevE.01 11-Sep-2007

 -------------------------------------
 # b3lyp/6-31G(d,p) pop=(ReadRadii,MK)
 -------------------------------------

 ----------
 Ca3PO4_127
 ----------
 Symbolic Z-matrix:
 Charge =  0 Multiplicity = 1

                         Standard orientation:
 ---------------------------------------------------------------------
 Center     Atomic     Atomic              Coordinates (Angstroms)
 Number     Number      Type              X           Y           Z
 ---------------------------------------------------------------------
    1          8             0       -0.750745    0.974942    1.351729
    2          8             0        0.283810   -0.486470   -0.454467
    3          8             0       -2.030139    0.425395    0.734728
    4          8             0        1.776441    0.307220    1.408609
    5         15             0        0.368510   -0.354941    1.260709
    6         20             0       -1.018069    1.623839   -0.941105
    7         20             0        2.649852   -0.231129   -0.645642
    8         20             0       -1.834458   -1.594751   -0.477511
    9          1             0        4.290922   -0.403762   -1.950301
 ---------------------------------------------------------------------

 SCF Done:  E(RB+HF-LYP) =  -2675.60855211     A.U. after   12 cycles

 The electronic state is 1-A.
 Alpha  occ. eigenvalues -- -145.39554-145.39198-145.36721 -77.15611 -19.18872
 Alpha  occ. eigenvalues --  -19.15195 -19.13232 -19.11147 -15.46633 -15.46283
 Alpha  occ. eigenvalues --  -15.43996 -12.59834 -12.59778 -12.59723 -12.59477
 Alpha  occ. eigenvalues --  -12.59447 -12.59363 -12.57246 -12.57170 -12.56961
 Alpha  occ. eigenvalues --   -6.61037  -4.77449  -4.77357  -4.76777  -1.83910
 Alpha  occ. eigenvalues --   -1.83630  -1.81648  -1.12186  -1.11518  -1.11356
 Alpha  occ. eigenvalues --   -1.11192  -1.11044  -1.10853  -1.09771  -1.09325
 Alpha  occ. eigenvalues --   -1.08767  -1.03728  -0.96479  -0.91849  -0.82159
 Alpha  occ. eigenvalues --   -0.54690  -0.44712  -0.42394  -0.41640  -0.38387
 Alpha  occ. eigenvalues --   -0.37036  -0.32833  -0.30716  -0.29532  -0.27493
 Alpha  occ. eigenvalues --   -0.25211  -0.23415  -0.21622  -0.14469
 Alpha virt. eigenvalues --   -0.10309  -0.05317  -0.04387  -0.03035  -0.01970
 Alpha virt. eigenvalues --   -0.01926  -0.00514   0.00211   0.01034   0.01741
 Alpha virt. eigenvalues --    0.02847   0.03925   0.05161   0.06141   0.07078

 Mulliken atomic charges:
              1
     1  O   -0.434612
     2  O   -0.893133
     3  O   -0.527281
     4  O   -0.726761
     5  P    0.912167
     6  Ca   0.518312
     7  Ca   0.842227
     8  Ca   0.597960
     9  H   -0.288878
 Sum of Mulliken charges=   0.00000

 Dipole moment (field-independent basis, Debye):
    X=    -2.5775    Y=    -0.7285    Z=    -0.7214  Tot=     2.7739
 Quadrupole moment (field-independent basis, Debye-Ang):
   XX=  -114.1831   YY=   -75.9277   ZZ=  -112.3000
   XY=     4.2777   XZ=     9.6038   YZ=    -6.6156

 Normal termination of Gaussian 03 at Mon May  4 20:10:06 2015.
