 Gaussian 03, Revision E.01,
 Gaussian 03:  EM64T-G03RevE.01 11-Sep-2007

 -------------------------------------
 # b3lyp/6-31G(d,p) pop=(ReadRadii,MK)
 -------------------------------------

 ---------
 Ca3PO4_80
 ---------
 Symbolic Z-matrix:
 Charge =  0 Multiplicity = 1

                         Standard orientation:
 ---------------------------------------------------------------------
 Center     Atomic     Atomic              Coordinates (Angstroms)
 Number     Number      Type              X           Y           Z
 ---------------------------------------------------------------------
    1          8             0        0.800737    0.115511    1.363150
    2          8             0       -1.394800   -1.356759    0.923459
    3          8             0       -0.216165    0.028960   -0.853006
    4          8             0        1.046300   -2.003189    0.021161
    5         15             0        0.008147   -0.944127    0.475263
    6         20             0       -2.606960   -0.033437   -0.590431
    7         20             0        2.302740   -0.196072   -0.653597
    8         20             0        0.089310    2.124431    0.336781
    9          1             0        2.287419    1.987281   -0.622104
 ---------------------------------------------------------------------

 SCF Done:  E(RB+HF-LYP) =  -2675.77690013     A.U. after    9 cycles

 The electronic state is 1-A.
 Alpha  occ. eigenvalues -- -145.40163-145.37136-145.36297 -77.18285 -19.10266
 Alpha  occ. eigenvalues --  -19.09164 -19.09126 -19.08378 -15.47202 -15.44210
 Alpha  occ. eigenvalues --  -15.43409 -12.60415 -12.60410 -12.60247 -12.57393
 Alpha  occ. eigenvalues --  -12.57374 -12.57313 -12.56609 -12.56558 -12.56482
 Alpha  occ. eigenvalues --   -6.62831  -4.79266  -4.79129  -4.79091  -1.84544
 Alpha  occ. eigenvalues --   -1.81525  -1.80719  -1.12729  -1.12122  -1.11462
 Alpha  occ. eigenvalues --   -1.09299  -1.08997  -1.08792  -1.08359  -1.08178
 Alpha  occ. eigenvalues --   -1.08051  -0.99654  -0.91602  -0.90370  -0.89777
 Alpha  occ. eigenvalues --   -0.49597  -0.40914  -0.40283  -0.39761  -0.34024
 Alpha  occ. eigenvalues --   -0.32519  -0.31536  -0.29539  -0.28374  -0.26402
 Alpha  occ. eigenvalues --   -0.26077  -0.24915  -0.24261  -0.12519
 Alpha virt. eigenvalues --   -0.08630  -0.06787  -0.02282  -0.01816  -0.01163
 Alpha virt. eigenvalues --    0.00307   0.00737   0.01665   0.02564   0.03024
 Alpha virt. eigenvalues --    0.04458   0.06000   0.08899   0.09700   0.10500

 Mulliken atomic charges:
              1
     1  O   -0.778968
     2  O   -0.678090
     3  O   -0.877955
     4  O   -0.718691
     5  P    1.388383
     6  Ca   0.499311
     7  Ca   0.990653
     8  Ca   0.580504
     9  H   -0.405147
 Sum of Mulliken charges=   0.00000

 Dipole moment (field-independent basis, Debye):
    X=     6.5507    Y=     0.9835    Z=    -4.1681  Tot=     7.8264
 Quadrupole moment (field-independent basis, Debye-Ang):
   XX=   -70.1441   YY=  -102.8254   ZZ=   -92.1134
   XY=     2.1568   XZ=    -6.0192   YZ=    10.4159

 Normal termination of Gaussian 03 at Mon May  4 20:13:29 2015.
