 Gaussian 03, Revision E.01,
 Gaussian 03:  EM64T-G03RevE.01 11-Sep-2007

 -------------------------------------
 # b3lyp/6-31G(d,p) pop=(ReadRadii,MK)
 -------------------------------------

 ---------
 Ca3PO4_49
 ---------
 Symbolic Z-matrix:
 Charge =  0 Multiplicity = 1

                         Standard orientation:
 ---------------------------------------------------------------------
 Center     Atomic     Atomic              Coordinates (Angstroms)
 Number     Number      Type              X           Y           Z
 ---------------------------------------------------------------------
    1          8             0       -1.132991    0.446211    1.219850
    2          8             0       -1.136451    0.448649   -1.219710
    3          8             0       -2.923961   -0.916045    0.001221
    4          8             0        2.560399    1.227769    0.000071
    5         15             0       -2.322921    0.549832    0.001835
    6         20             0        3.071479   -1.015791    0.000598
    7         20             0       -0.780043   -1.642340   -0.001714
    8         20             0        0.339810    1.669680   -0.000844
    9          1             0        3.282919    1.868879    0.000230
 ---------------------------------------------------------------------

 SCF Done:  E(RB+HF-LYP) =  -2675.76021256     A.U. after    9 cycles

 The electronic state is 1-A.
 Alpha  occ. eigenvalues -- -145.37827-145.35789-145.35463 -77.09316 -19.12340
 Alpha  occ. eigenvalues --  -19.05891 -19.05884 -19.04730 -15.45013 -15.42862
 Alpha  occ. eigenvalues --  -15.42634 -12.58186 -12.58181 -12.58048 -12.56044
 Alpha  occ. eigenvalues --  -12.56041 -12.55947 -12.55872 -12.55790 -12.55662
 Alpha  occ. eigenvalues --   -6.54661  -4.71016  -4.70973  -4.70533  -1.82407
 Alpha  occ. eigenvalues --   -1.80306  -1.80266  -1.09943  -1.09934  -1.09610
 Alpha  occ. eigenvalues --   -1.08658  -1.08178  -1.07849  -1.07681  -1.07680
 Alpha  occ. eigenvalues --   -1.07527  -0.93740  -0.91525  -0.85141  -0.83924
 Alpha  occ. eigenvalues --   -0.46609  -0.45301  -0.34012  -0.33999  -0.33449
 Alpha  occ. eigenvalues --   -0.32358  -0.30003  -0.27840  -0.26296  -0.23069
 Alpha  occ. eigenvalues --   -0.21657  -0.20262  -0.18153  -0.14809
 Alpha virt. eigenvalues --   -0.07525  -0.06565  -0.04045  -0.02950  -0.02333
 Alpha virt. eigenvalues --    0.00673   0.01590   0.01689   0.02935   0.03234
 Alpha virt. eigenvalues --    0.04784   0.06612   0.07490   0.10084   0.10670

 Mulliken atomic charges:
              1
     1  O   -0.824566
     2  O   -0.824385
     3  O   -0.733387
     4  O   -0.844737
     5  P    0.947977
     6  Ca   0.157402
     7  Ca   0.617315
     8  Ca   1.212298
     9  H    0.292084
 Sum of Mulliken charges=   0.00000

 Dipole moment (field-independent basis, Debye):
    X=     9.0854    Y=     2.2885    Z=    -0.0094  Tot=     9.3692
 Quadrupole moment (field-independent basis, Debye-Ang):
   XX=  -104.2329   YY=   -64.7720   ZZ=   -96.4860
   XY=    10.5189   XZ=     0.0200   YZ=     0.0089

 Normal termination of Gaussian 03 at Mon May  4 20:12:35 2015.
