 Gaussian 03, Revision E.01,
 Gaussian 03:  EM64T-G03RevE.01 11-Sep-2007

 -------------------------------------
 # b3lyp/6-31G(d,p) pop=(ReadRadii,MK)
 -------------------------------------

 ---------
 Ca3PO4_74
 ---------
 Symbolic Z-matrix:
 Charge =  0 Multiplicity = 1

                         Standard orientation:
 ---------------------------------------------------------------------
 Center     Atomic     Atomic              Coordinates (Angstroms)
 Number     Number      Type              X           Y           Z
 ---------------------------------------------------------------------
    1          8             0       -2.052397    0.978663   -0.170768
    2          8             0       -1.955819    0.003874    0.961197
    3          8             0        0.650691   -0.109668   -1.037840
    4          8             0       -0.638650    0.120911    1.612720
    5         15             0        2.357692    0.436294   -0.740858
    6         20             0        1.094407   -1.426773    0.940085
    7         20             0        0.124083    1.836569    0.208529
    8         20             0       -1.363132   -0.996727   -1.135000
    9          1             0       -0.503140   -2.756019   -0.081871
 ---------------------------------------------------------------------

 SCF Done:  E(RB+HF-LYP) =  -2675.50940407     A.U. after   10 cycles

 The electronic state is 1-A.
 Alpha  occ. eigenvalues -- -145.36620-145.34922-145.34176 -77.01051 -19.22732
 Alpha  occ. eigenvalues --  -19.13866 -19.13364 -19.07170 -15.43700 -15.42045
 Alpha  occ. eigenvalues --  -15.41315 -12.56922 -12.56846 -12.56787 -12.55221
 Alpha  occ. eigenvalues --  -12.55211 -12.55140 -12.54514 -12.54481 -12.54381
 Alpha  occ. eigenvalues --   -6.47631  -4.64167  -4.63502  -4.63452  -1.81210
 Alpha  occ. eigenvalues --   -1.79529  -1.78904  -1.11000  -1.09023  -1.08556
 Alpha  occ. eigenvalues --   -1.07569  -1.07145  -1.06807  -1.06623  -1.06560
 Alpha  occ. eigenvalues --   -1.06377  -1.04637  -0.89554  -0.85934  -0.74077
 Alpha  occ. eigenvalues --   -0.47369  -0.44605  -0.41917  -0.40540  -0.29927
 Alpha  occ. eigenvalues --   -0.29735  -0.28983  -0.27921  -0.26880  -0.26168
 Alpha  occ. eigenvalues --   -0.24801  -0.20813  -0.13063  -0.12458
 Alpha virt. eigenvalues --   -0.07237  -0.06025  -0.04671  -0.01412  -0.00259
 Alpha virt. eigenvalues --    0.00360   0.01824   0.02096   0.02250   0.03023
 Alpha virt. eigenvalues --    0.04073   0.04629   0.05894   0.07637   0.08249

 Mulliken atomic charges:
              1
     1  O   -0.552275
     2  O   -0.134027
     3  O   -0.909189
     4  O   -0.532884
     5  P   -0.272957
     6  Ca   0.843225
     7  Ca   0.919596
     8  Ca   1.050528
     9  H   -0.412017
 Sum of Mulliken charges=   0.00000

 Dipole moment (field-independent basis, Debye):
    X=    -5.1815    Y=    -1.0438    Z=    -1.4750  Tot=     5.4875
 Quadrupole moment (field-independent basis, Debye-Ang):
   XX=  -102.0558   YY=   -74.6364   ZZ=   -80.8607
   XY=    -1.4067   XZ=    22.7121   YZ=     1.8054

 Normal termination of Gaussian 03 at Mon May  4 20:13:25 2015.
