 Gaussian 03, Revision E.01,
 Gaussian 03:  EM64T-G03RevE.01 11-Sep-2007

 -------------------------------------
 # b3lyp/6-31G(d,p) pop=(ReadRadii,MK)
 -------------------------------------

 ---------
 Ca3PO4_18
 ---------
 Symbolic Z-matrix:
 Charge =  0 Multiplicity = 1

                         Standard orientation:
 ---------------------------------------------------------------------
 Center     Atomic     Atomic              Coordinates (Angstroms)
 Number     Number      Type              X           Y           Z
 ---------------------------------------------------------------------
    1          8             0       -2.091750   -0.395153    1.233130
    2          8             0       -0.290624    0.358507   -0.452357
    3          8             0        0.145651   -1.735190    0.954904
    4          8             0        2.828590    0.347517   -0.504278
    5         15             0       -0.525863   -0.328079    1.177530
    6         20             0        1.493630   -1.304650   -0.818742
    7         20             0        1.449500    1.683930    0.392619
    8         20             0       -2.591190    0.381229   -0.832363
    9          1             0       -3.885810    1.105559   -2.344430
 ---------------------------------------------------------------------

 SCF Done:  E(RB+HF-LYP) =  -2675.73191166     A.U. after   11 cycles

 The electronic state is 1-A.
 Alpha  occ. eigenvalues -- -145.36330-145.34084-145.33910 -77.12727 -19.10262
 Alpha  occ. eigenvalues --  -19.07705 -19.07605 -19.00135 -15.43408 -15.41233
 Alpha  occ. eigenvalues --  -15.41218 -12.56621 -12.56564 -12.56474 -12.54482
 Alpha  occ. eigenvalues --  -12.54415 -12.54409 -12.54399 -12.54254 -12.54192
 Alpha  occ. eigenvalues --   -6.57944  -4.74428  -4.74205  -4.73840  -1.80903
 Alpha  occ. eigenvalues --   -1.78999  -1.78841  -1.08849  -1.08575  -1.07969
 Alpha  occ. eigenvalues --   -1.07162  -1.06840  -1.06710  -1.06557  -1.06145
 Alpha  occ. eigenvalues --   -1.05828  -0.94789  -0.88710  -0.87966  -0.74148
 Alpha  occ. eigenvalues --   -0.49351  -0.38385  -0.37152  -0.36417  -0.31894
 Alpha  occ. eigenvalues --   -0.29335  -0.26636  -0.25442  -0.24739  -0.20633
 Alpha  occ. eigenvalues --   -0.19976  -0.18910  -0.18156  -0.17838
 Alpha virt. eigenvalues --   -0.08584  -0.06899  -0.02415  -0.01551  -0.00712
 Alpha virt. eigenvalues --    0.00021   0.01449   0.01954   0.02227   0.03231
 Alpha virt. eigenvalues --    0.04559   0.05580   0.06878   0.08909   0.09809

 Mulliken atomic charges:
              1
     1  O   -0.711837
     2  O   -0.914089
     3  O   -0.715717
     4  O   -0.888126
     5  P    0.820341
     6  Ca   1.003004
     7  Ca   0.912208
     8  Ca   0.795968
     9  H   -0.301751
 Sum of Mulliken charges=   0.00000

 Dipole moment (field-independent basis, Debye):
    X=     4.0231    Y=     1.9978    Z=    -1.5107  Tot=     4.7391
 Quadrupole moment (field-independent basis, Debye-Ang):
   XX=  -115.3361   YY=   -60.9018   ZZ=   -95.1088
   XY=     3.4283   XZ=    -7.0063   YZ=    23.5416

 Normal termination of Gaussian 03 at Mon May  4 20:11:20 2015.
