 Gaussian 03, Revision E.01,
 Gaussian 03:  EM64T-G03RevE.01 11-Sep-2007

 -------------------------------------
 # b3lyp/6-31G(d,p) pop=(ReadRadii,MK)
 -------------------------------------

 ---------
 Ca3PO4_85
 ---------
 Symbolic Z-matrix:
 Charge =  0 Multiplicity = 1

                         Standard orientation:
 ---------------------------------------------------------------------
 Center     Atomic     Atomic              Coordinates (Angstroms)
 Number     Number      Type              X           Y           Z
 ---------------------------------------------------------------------
    1          8             0       -0.930345    0.652662   -0.589276
    2          8             0        2.853200    0.975363   -0.403864
    3          8             0        0.599121   -0.540017    1.029730
    4          8             0       -1.768350   -1.544850    0.340827
    5         15             0       -0.435408   -0.905680   -0.187022
    6         20             0        2.488470   -1.104090   -0.169810
    7         20             0        0.939579    1.693830    0.268037
    8         20             0       -3.152860    0.210075   -0.107765
    9          1             0       -5.001650    1.243631   -0.023273
 ---------------------------------------------------------------------

 SCF Done:  E(RB+HF-LYP) =  -2675.73837882     A.U. after    9 cycles

 The electronic state is 1-A.
 Alpha  occ. eigenvalues -- -145.35946-145.33665-145.33314 -77.12600 -19.08809
 Alpha  occ. eigenvalues --  -19.08441 -19.07206 -18.99893 -15.43026 -15.40810
 Alpha  occ. eigenvalues --  -15.40631 -12.56240 -12.56177 -12.56096 -12.54013
 Alpha  occ. eigenvalues --  -12.53994 -12.53877 -12.53843 -12.53800 -12.53592
 Alpha  occ. eigenvalues --   -6.57747  -4.74155  -4.74082  -4.73657  -1.80524
 Alpha  occ. eigenvalues --   -1.78459  -1.78374  -1.08477  -1.08227  -1.07578
 Alpha  occ. eigenvalues --   -1.06542  -1.06486  -1.06185  -1.06082  -1.05659
 Alpha  occ. eigenvalues --   -1.05334  -0.94641  -0.88553  -0.87593  -0.73832
 Alpha  occ. eigenvalues --   -0.49239  -0.37973  -0.37415  -0.36149  -0.31391
 Alpha  occ. eigenvalues --   -0.28752  -0.26573  -0.25178  -0.24704  -0.19998
 Alpha  occ. eigenvalues --   -0.19640  -0.18464  -0.17795  -0.17444
 Alpha virt. eigenvalues --   -0.08180  -0.06685  -0.01134  -0.00867  -0.00241
 Alpha virt. eigenvalues --    0.00186   0.00817   0.01689   0.02872   0.04119
 Alpha virt. eigenvalues --    0.04340   0.06470   0.06769   0.09351   0.09963

 Mulliken atomic charges:
              1
     1  O   -0.864044
     2  O   -0.888880
     3  O   -0.788624
     4  O   -0.728982
     5  P    0.834019
     6  Ca   0.970069
     7  Ca   0.976709
     8  Ca   0.791611
     9  H   -0.301878
 Sum of Mulliken charges=   0.00000

 Dipole moment (field-independent basis, Debye):
    X=     6.3875    Y=    -0.7838    Z=     0.8556  Tot=     6.4920
 Quadrupole moment (field-independent basis, Debye-Ang):
   XX=  -111.6380   YY=   -70.0419   ZZ=   -84.2246
   XY=   -11.7224   XZ=     5.6941   YZ=     9.8191

 Normal termination of Gaussian 03 at Mon May  4 20:13:32 2015.
