 Gaussian 03, Revision E.01,
 Gaussian 03:  EM64T-G03RevE.01 11-Sep-2007

 -------------------------------------
 # b3lyp/6-31G(d,p) pop=(ReadRadii,MK)
 -------------------------------------

 ---------
 Ca3PO4_11
 ---------
 Symbolic Z-matrix:
 Charge =  0 Multiplicity = 1

                         Standard orientation:
 ---------------------------------------------------------------------
 Center     Atomic     Atomic              Coordinates (Angstroms)
 Number     Number      Type              X           Y           Z
 ---------------------------------------------------------------------
    1          8             0       -1.329030   -0.632449   -1.216380
    2          8             0       -1.194070   -0.602083    1.244490
    3          8             0       -2.918640    0.877138    0.088163
    4          8             0        1.402410    0.773074   -0.132021
    5         15             0       -2.377790   -0.616877    0.076557
    6         20             0       -0.714097    1.510509   -0.053099
    7         20             0        0.516931   -1.390181   -0.074343
    8         20             0        3.453460    0.269276    0.073329
    9          1             0        2.855581   -1.864401    0.059895
 ---------------------------------------------------------------------

 SCF Done:  E(RB+HF-LYP) =  -2675.74019685     A.U. after   14 cycles

 The electronic state is 1-A.
 Alpha  occ. eigenvalues -- -145.39473-145.31939-145.31936 -77.08154 -19.04293
 Alpha  occ. eigenvalues --  -19.04281 -19.04078 -19.03290 -15.46595 -15.39097
 Alpha  occ. eigenvalues --  -15.39056 -12.59813 -12.59727 -12.59661 -12.52283
 Alpha  occ. eigenvalues --  -12.52271 -12.52269 -12.52259 -12.52164 -12.52075
 Alpha  occ. eigenvalues --   -6.53408  -4.69744  -4.69708  -4.69378  -1.84040
 Alpha  occ. eigenvalues --   -1.76802  -1.76626  -1.11876  -1.11369  -1.11046
 Alpha  occ. eigenvalues --   -1.05439  -1.04539  -1.04508  -1.04272  -1.03997
 Alpha  occ. eigenvalues --   -1.03597  -0.90454  -0.83575  -0.82964  -0.78852
 Alpha  occ. eigenvalues --   -0.44617  -0.32855  -0.32350  -0.31907  -0.28262
 Alpha  occ. eigenvalues --   -0.26132  -0.24637  -0.24426  -0.23508  -0.22466
 Alpha  occ. eigenvalues --   -0.21229  -0.20282  -0.18662  -0.13809
 Alpha virt. eigenvalues --   -0.11321  -0.04716  -0.04354  -0.02860  -0.01937
 Alpha virt. eigenvalues --   -0.00337   0.01732   0.02566   0.03577   0.04442
 Alpha virt. eigenvalues --    0.05499   0.06314   0.07793   0.10384   0.10550

 Mulliken atomic charges:
              1
     1  O   -0.807497
     2  O   -0.805229
     3  O   -0.729776
     4  O   -0.942327
     5  P    0.995862
     6  Ca   0.938224
     7  Ca   0.907893
     8  Ca   0.840364
     9  H   -0.397513
 Sum of Mulliken charges=   0.00000

 Dipole moment (field-independent basis, Debye):
    X=    14.3666    Y=     3.3511    Z=    -0.2049  Tot=    14.7536
 Quadrupole moment (field-independent basis, Debye-Ang):
   XX=   -79.5072   YY=   -69.7187   ZZ=   -89.1105
   XY=     4.3429   XZ=     1.6349   YZ=     0.7765

 Normal termination of Gaussian 03 at Mon May  4 20:09:46 2015.
