 Gaussian 03, Revision E.01,
 Gaussian 03:  EM64T-G03RevE.01 11-Sep-2007

 -------------------------------------
 # b3lyp/6-31G(d,p) pop=(ReadRadii,MK)
 -------------------------------------

 ----------
 Ca3PO4_185
 ----------
 Symbolic Z-matrix:
 Charge =  0 Multiplicity = 1

                         Standard orientation:
 ---------------------------------------------------------------------
 Center     Atomic     Atomic              Coordinates (Angstroms)
 Number     Number      Type              X           Y           Z
 ---------------------------------------------------------------------
    1          8             0       -2.310861    1.065778   -0.784480
    2          8             0       -1.802359   -1.515761   -0.777814
    3          8             0       -0.914332    0.011539    1.075850
    4          8             0        2.393671   -1.396148   -0.103027
    5         15             0       -2.367650   -0.285727    0.087615
    6         20             0       -0.550087    2.014860    0.148097
    7         20             0        3.064769    0.794807   -0.174966
    8         20             0        0.163469   -1.757570    0.215373
    9          1             0        3.022791   -2.079298   -0.368538
 ---------------------------------------------------------------------

 SCF Done:  E(RB+HF-LYP) =  -2675.76268462     A.U. after   11 cycles

 The electronic state is 1-A.
 Alpha  occ. eigenvalues -- -145.38068-145.35861-145.33635 -77.08579 -19.12164
 Alpha  occ. eigenvalues --  -19.06127 -19.04425 -19.04315 -15.45257 -15.43002
 Alpha  occ. eigenvalues --  -15.40864 -12.58434 -12.58429 -12.58286 -12.56223
 Alpha  occ. eigenvalues --  -12.56136 -12.56064 -12.54100 -12.54022 -12.53872
 Alpha  occ. eigenvalues --   -6.53740  -4.70165  -4.70027  -4.69586  -1.82662
 Alpha  occ. eigenvalues --   -1.80534  -1.78626  -1.10226  -1.10201  -1.09809
 Alpha  occ. eigenvalues --   -1.08409  -1.08114  -1.07843  -1.06733  -1.06306
 Alpha  occ. eigenvalues --   -1.06151  -0.93554  -0.90465  -0.84533  -0.83684
 Alpha  occ. eigenvalues --   -0.45783  -0.44956  -0.34353  -0.33516  -0.32308
 Alpha  occ. eigenvalues --   -0.31629  -0.29845  -0.27789  -0.24950  -0.22114
 Alpha  occ. eigenvalues --   -0.22034  -0.21124  -0.16920  -0.13849
 Alpha virt. eigenvalues --   -0.08062  -0.05690  -0.04374  -0.03588  -0.02233
 Alpha virt. eigenvalues --    0.00539   0.00985   0.02371   0.02957   0.03672
 Alpha virt. eigenvalues --    0.04349   0.05625   0.07729   0.09809   0.10159

 Mulliken atomic charges:
              1
     1  O   -0.746833
     2  O   -0.748620
     3  O   -0.865652
     4  O   -0.846292
     5  P    0.906089
     6  Ca   0.676214
     7  Ca   0.240101
     8  Ca   1.093228
     9  H    0.291766
 Sum of Mulliken charges=   0.00000

 Dipole moment (field-independent basis, Debye):
    X=     9.0548    Y=    -0.4834    Z=     2.4469  Tot=     9.3920
 Quadrupole moment (field-independent basis, Debye-Ang):
   XX=  -103.7162   YY=   -63.9416   ZZ=   -94.1381
   XY=   -14.6273   XZ=    -6.8147   YZ=    -0.6522

 Normal termination of Gaussian 03 at Mon May  4 20:11:15 2015.
