 Gaussian 03, Revision E.01,
 Gaussian 03:  EM64T-G03RevE.01 11-Sep-2007

 -------------------------------------
 # b3lyp/6-31G(d,p) pop=(ReadRadii,MK)
 -------------------------------------

 ----------
 Ca3PO4_186
 ----------
 Symbolic Z-matrix:
 Charge =  0 Multiplicity = 1

                         Standard orientation:
 ---------------------------------------------------------------------
 Center     Atomic     Atomic              Coordinates (Angstroms)
 Number     Number      Type              X           Y           Z
 ---------------------------------------------------------------------
    1          8             0        1.224605   -1.850104    1.013010
    2          8             0        1.806380   -0.050841   -0.717748
    3          8             0        0.016948    0.423132    0.847310
    4          8             0       -2.263923   -1.061133   -0.692781
    5         15             0        1.601829   -0.317178    0.945673
    6         20             0       -2.179807    0.808038    0.641072
    7         20             0       -0.061117   -1.551840   -0.821017
    8         20             0        0.878740    2.066317   -0.652383
    9          1             0       -3.055814   -1.381061   -1.136830
 ---------------------------------------------------------------------

 SCF Done:  E(RB+HF-LYP) =  -2675.78234486     A.U. after   10 cycles

 The electronic state is 1-A.
 Alpha  occ. eigenvalues -- -145.36747-145.36273-145.34779 -77.10604 -19.10992
 Alpha  occ. eigenvalues --  -19.08297 -19.06700 -19.05751 -15.43870 -15.43409
 Alpha  occ. eigenvalues --  -15.41903 -12.57089 -12.57021 -12.56923 -12.56624
 Alpha  occ. eigenvalues --  -12.56521 -12.56504 -12.55128 -12.55078 -12.54942
 Alpha  occ. eigenvalues --   -6.55910  -4.72317  -4.72210  -4.71716  -1.81265
 Alpha  occ. eigenvalues --   -1.80843  -1.79503  -1.09101  -1.08984  -1.08566
 Alpha  occ. eigenvalues --   -1.08501  -1.08333  -1.08183  -1.07583  -1.07120
 Alpha  occ. eigenvalues --   -1.06856  -0.92955  -0.92171  -0.86665  -0.85423
 Alpha  occ. eigenvalues --   -0.48693  -0.44084  -0.36630  -0.35197  -0.34599
 Alpha  occ. eigenvalues --   -0.30805  -0.30056  -0.28616  -0.28147  -0.24627
 Alpha  occ. eigenvalues --   -0.23404  -0.22077  -0.18677  -0.13055
 Alpha virt. eigenvalues --   -0.07980  -0.06103  -0.03297  -0.02218  -0.00810
 Alpha virt. eigenvalues --    0.00307   0.00682   0.01789   0.02626   0.03447
 Alpha virt. eigenvalues --    0.05204   0.06499   0.08695   0.09110   0.09743

 Mulliken atomic charges:
              1
     1  O   -0.739722
     2  O   -0.833627
     3  O   -0.890804
     4  O   -0.845112
     5  P    0.958548
     6  Ca   0.725032
     7  Ca   0.905210
     8  Ca   0.423166
     9  H    0.297309
 Sum of Mulliken charges=   0.00000

 Dipole moment (field-independent basis, Debye):
    X=    -4.3127    Y=    -1.2828    Z=    -3.8754  Tot=     5.9383
 Quadrupole moment (field-independent basis, Debye-Ang):
   XX=   -90.4120   YY=   -87.5430   ZZ=   -88.1702
   XY=    14.9512   XZ=    -8.2919   YZ=    13.5334

 Normal termination of Gaussian 03 at Mon May  4 20:11:16 2015.
