 Gaussian 03, Revision E.01,
 Gaussian 03:  EM64T-G03RevE.01 11-Sep-2007

 -------------------------------------
 # b3lyp/6-31G(d,p) pop=(ReadRadii,MK)
 -------------------------------------

 ---------
 Ca3PO4_29
 ---------
 Symbolic Z-matrix:
 Charge =  0 Multiplicity = 1

                         Standard orientation:
 ---------------------------------------------------------------------
 Center     Atomic     Atomic              Coordinates (Angstroms)
 Number     Number      Type              X           Y           Z
 ---------------------------------------------------------------------
    1          8             0       -1.423829   -0.249676   -1.213080
    2          8             0       -1.423919   -0.246750    1.213640
    3          8             0       -3.660839   -0.483170    0.000129
    4          8             0        2.693931   -0.078806   -0.001694
    5         15             0       -2.207678   -1.113771    0.000838
    6         20             0        0.600139   -0.475129    0.000110
    7         20             0       -2.552299    1.475939   -0.000600
    8         20             0        4.790141    0.225507   -0.000180
    9          1             0        6.872781    0.647449    0.008822
 ---------------------------------------------------------------------

 SCF Done:  E(RB+HF-LYP) =  -2675.70554548     A.U. after   10 cycles

 The electronic state is 1-A.
 Alpha  occ. eigenvalues -- -145.39783-145.33343-145.31169 -77.11835 -19.08212
 Alpha  occ. eigenvalues --  -19.08210 -19.07579 -19.00183 -15.46793 -15.40749
 Alpha  occ. eigenvalues --  -15.38454 -12.59951 -12.59950 -12.59933 -12.53977
 Alpha  occ. eigenvalues --  -12.53976 -12.53640 -12.51712 -12.51635 -12.51409
 Alpha  occ. eigenvalues --   -6.57226  -4.73556  -4.73522  -4.73162  -1.84095
 Alpha  occ. eigenvalues --   -1.78625  -1.76299  -1.12175  -1.11429  -1.11381
 Alpha  occ. eigenvalues --   -1.06744  -1.06733  -1.05096  -1.04584  -1.04106
 Alpha  occ. eigenvalues --   -1.03662  -0.94204  -0.87802  -0.86349  -0.74409
 Alpha  occ. eigenvalues --   -0.48792  -0.36400  -0.36155  -0.35842  -0.30116
 Alpha  occ. eigenvalues --   -0.28767  -0.25588  -0.24075  -0.22501  -0.22100
 Alpha  occ. eigenvalues --   -0.19521  -0.19199  -0.18857  -0.18723
 Alpha virt. eigenvalues --   -0.10355  -0.04891  -0.02969  -0.01635  -0.01262
 Alpha virt. eigenvalues --   -0.00649  -0.00601   0.01866   0.02538   0.03180
 Alpha virt. eigenvalues --    0.05640   0.06632   0.07482   0.09266   0.10158

 Mulliken atomic charges:
              1
     1  O   -0.796088
     2  O   -0.796296
     3  O   -0.711553
     4  O   -0.945959
     5  P    0.976479
     6  Ca   0.853673
     7  Ca   0.881854
     8  Ca   0.815290
     9  H   -0.277399
 Sum of Mulliken charges=   0.00000

 Dipole moment (field-independent basis, Debye):
    X=    -2.2787    Y=     6.6318    Z=    -0.0244  Tot=     7.0124
 Quadrupole moment (field-independent basis, Debye-Ang):
   XX=  -133.2914   YY=   -65.9023   ZZ=   -88.5832
   XY=   -33.6455   XZ=    -0.1452   YZ=    -0.0325

 Normal termination of Gaussian 03 at Mon May  4 20:12:04 2015.
