 Gaussian 03, Revision E.01,
 Gaussian 03:  EM64T-G03RevE.01 11-Sep-2007

 -------------------------------------
 # b3lyp/6-31G(d,p) pop=(ReadRadii,MK)
 -------------------------------------

 ----------
 Ca3PO4_159
 ----------
 Symbolic Z-matrix:
 Charge =  0 Multiplicity = 1

                         Standard orientation:
 ---------------------------------------------------------------------
 Center     Atomic     Atomic              Coordinates (Angstroms)
 Number     Number      Type              X           Y           Z
 ---------------------------------------------------------------------
    1          8             0        0.405675   -0.535989    1.469850
    2          8             0       -0.819328   -0.369927   -0.697273
    3          8             0        2.000422    1.045219   -0.861679
    4          8             0        3.067162    0.533277    0.066050
    5         15             0       -0.862383   -1.373820    0.767593
    6         20             0       -3.010159    0.348803   -0.495515
    7         20             0        0.137701    1.564579    0.533516
    8         20             0        1.464831   -1.197461   -0.587045
    9          1             0        3.856832    0.908238   -0.348614
 ---------------------------------------------------------------------

 SCF Done:  E(RB+HF-LYP) =  -2675.59272929     A.U. after   12 cycles

 The electronic state is 1-A.
 Alpha  occ. eigenvalues -- -145.36877-145.35869-145.35741 -77.07404 -19.22098
 Alpha  occ. eigenvalues --  -19.15815 -19.08948 -19.07484 -15.43941 -15.43023
 Alpha  occ. eigenvalues --  -15.42813 -12.57127 -12.57109 -12.57052 -12.56205
 Alpha  occ. eigenvalues --  -12.56173 -12.56087 -12.56008 -12.55960 -12.55922
 Alpha  occ. eigenvalues --   -6.53531  -4.69990  -4.69631  -4.69304  -1.81373
 Alpha  occ. eigenvalues --   -1.80381  -1.80202  -1.10632  -1.09383  -1.08857
 Alpha  occ. eigenvalues --   -1.08090  -1.07798  -1.07766  -1.07664  -1.07549
 Alpha  occ. eigenvalues --   -1.07486  -1.05987  -0.90947  -0.86211  -0.84287
 Alpha  occ. eigenvalues --   -0.51742  -0.49437  -0.42674  -0.40402  -0.34731
 Alpha  occ. eigenvalues --   -0.34198  -0.33281  -0.28731  -0.27766  -0.26027
 Alpha  occ. eigenvalues --   -0.24860  -0.23674  -0.13025  -0.12336
 Alpha virt. eigenvalues --   -0.07891  -0.06719  -0.02934  -0.02131  -0.01457
 Alpha virt. eigenvalues --    0.00091   0.00530   0.00939   0.02209   0.02430
 Alpha virt. eigenvalues --    0.03746   0.04743   0.05411   0.06996   0.08637

 Mulliken atomic charges:
              1
     1  O   -0.803429
     2  O   -0.871646
     3  O   -0.550459
     4  O   -0.399386
     5  P    0.326867
     6  Ca   0.292653
     7  Ca   0.619171
     8  Ca   1.033760
     9  H    0.352469
 Sum of Mulliken charges=   0.00000

 Dipole moment (field-independent basis, Debye):
    X=     5.2480    Y=    -0.4087    Z=    -3.2168  Tot=     6.1690
 Quadrupole moment (field-independent basis, Debye-Ang):
   XX=   -78.4726   YY=   -95.0002   ZZ=   -96.2898
   XY=     1.4476   XZ=    -1.3187   YZ=     9.7690

 Normal termination of Gaussian 03 at Mon May  4 20:10:44 2015.
