 Gaussian 03, Revision E.01,
 Gaussian 03:  EM64T-G03RevE.01 11-Sep-2007

 -------------------------------------
 # b3lyp/6-31G(d,p) pop=(ReadRadii,MK)
 -------------------------------------

 ----------
 Ca3PO4_116
 ----------
 Symbolic Z-matrix:
 Charge =  0 Multiplicity = 1

                         Standard orientation:
 ---------------------------------------------------------------------
 Center     Atomic     Atomic              Coordinates (Angstroms)
 Number     Number      Type              X           Y           Z
 ---------------------------------------------------------------------
    1          8             0       -2.892530   -0.237806   -0.096658
    2          8             0       -2.094460   -0.214740    1.159520
    3          8             0       -1.949561   -0.543845   -1.207500
    4          8             0        0.808995    0.201289    0.034814
    5         15             0        1.593191    1.780768    0.191333
    6         20             0        2.885119   -0.835221   -0.206145
    7         20             0       -1.192529    1.419130   -0.229506
    8         20             0       -0.516798   -1.696720    0.254705
    9          1             0        1.606751    1.905518    1.627570
 ---------------------------------------------------------------------

 SCF Done:  E(RB+HF-LYP) =  -2675.52811975     A.U. after    8 cycles

 The electronic state is 1-A.
 Alpha  occ. eigenvalues -- -145.36933-145.36572-145.36228 -77.05774 -19.22435
 Alpha  occ. eigenvalues --  -19.13439 -19.13340 -19.10532 -15.44078 -15.43661
 Alpha  occ. eigenvalues --  -15.43322 -12.57266 -12.57219 -12.57151 -12.56853
 Alpha  occ. eigenvalues --  -12.56839 -12.56745 -12.56508 -12.56490 -12.56413
 Alpha  occ. eigenvalues --   -6.52508  -4.69008  -4.68528  -4.68217  -1.81413
 Alpha  occ. eigenvalues --   -1.81169  -1.80751  -1.11827  -1.09278  -1.08977
 Alpha  occ. eigenvalues --   -1.08804  -1.08773  -1.08601  -1.08296  -1.08189
 Alpha  occ. eigenvalues --   -1.07868  -1.04710  -0.90175  -0.89257  -0.73783
 Alpha  occ. eigenvalues --   -0.55089  -0.43674  -0.41330  -0.40829  -0.37799
 Alpha  occ. eigenvalues --   -0.34159  -0.31842  -0.28711  -0.27431  -0.25609
 Alpha  occ. eigenvalues --   -0.23800  -0.21027  -0.18018  -0.13735
 Alpha virt. eigenvalues --   -0.06994  -0.06483  -0.03158  -0.01533  -0.01294
 Alpha virt. eigenvalues --   -0.00240   0.00689   0.01014   0.02054   0.02615
 Alpha virt. eigenvalues --    0.03994   0.04313   0.05756   0.06436   0.08314

 Mulliken atomic charges:
              1
     1  O   -0.146444
     2  O   -0.540935
     3  O   -0.537769
     4  O   -0.907964
     5  P   -0.103784
     6  Ca   0.332029
     7  Ca   1.135391
     8  Ca   0.822091
     9  H   -0.052616
 Sum of Mulliken charges=   0.00000

 Dipole moment (field-independent basis, Debye):
    X=    -0.8084    Y=     2.1551    Z=    -0.5037  Tot=     2.3562
 Quadrupole moment (field-independent basis, Debye-Ang):
   XX=   -98.0466   YY=   -85.2511   ZZ=   -93.4135
   XY=    -7.2507   XZ=     0.1250   YZ=    -4.7991

 Normal termination of Gaussian 03 at Mon May  4 20:09:29 2015.
