 Gaussian 03, Revision E.01,
 Gaussian 03:  EM64T-G03RevE.01 11-Sep-2007

 -------------------------------------
 # b3lyp/6-31G(d,p) pop=(ReadRadii,MK)
 -------------------------------------

 ----------
 Ca3PO4_158
 ----------
 Symbolic Z-matrix:
 Charge =  0 Multiplicity = 1

                         Standard orientation:
 ---------------------------------------------------------------------
 Center     Atomic     Atomic              Coordinates (Angstroms)
 Number     Number      Type              X           Y           Z
 ---------------------------------------------------------------------
    1          8             0       -2.350657    0.819376    0.734786
    2          8             0       -2.161997    1.164964   -0.776677
    3          8             0        0.289576   -0.657081   -0.640775
    4          8             0        2.078194    1.739097   -0.049942
    5         15             0        0.465177   -1.654000    0.948459
    6         20             0        2.520681   -0.460803   -0.380724
    7         20             0       -0.185958    1.411491    0.376195
    8         20             0       -1.957920   -1.061717   -0.418892
    9          1             0        2.645375    2.499737    0.102415
 ---------------------------------------------------------------------

 SCF Done:  E(RB+HF-LYP) =  -2675.63087507     A.U. after   11 cycles

 The electronic state is 1-A.
 Alpha  occ. eigenvalues -- -145.35739-145.33268-145.30004 -76.99881 -19.09741
 Alpha  occ. eigenvalues --  -19.06270 -19.06132 -19.05909 -15.42878 -15.40339
 Alpha  occ. eigenvalues --  -15.37155 -12.56087 -12.56013 -12.55962 -12.53550
 Alpha  occ. eigenvalues --  -12.53492 -12.53429 -12.50368 -12.50345 -12.50190
 Alpha  occ. eigenvalues --   -6.46593  -4.63195  -4.62521  -4.62304  -1.80393
 Alpha  occ. eigenvalues --   -1.77851  -1.74854  -1.08219  -1.08008  -1.07635
 Alpha  occ. eigenvalues --   -1.06212  -1.05375  -1.05304  -1.02782  -1.02598
 Alpha  occ. eigenvalues --   -1.02455  -0.91179  -0.88800  -0.84094  -0.69865
 Alpha  occ. eigenvalues --   -0.46238  -0.42840  -0.30076  -0.29767  -0.29127
 Alpha  occ. eigenvalues --   -0.28032  -0.27527  -0.27376  -0.26686  -0.25775
 Alpha  occ. eigenvalues --   -0.16505  -0.15605  -0.14102  -0.11107
 Alpha virt. eigenvalues --   -0.08212  -0.05544  -0.02636  -0.01205  -0.00077
 Alpha virt. eigenvalues --    0.01133   0.02751   0.02924   0.03608   0.04878
 Alpha virt. eigenvalues --    0.05455   0.06174   0.06910   0.08332   0.10190

 Mulliken atomic charges:
              1
     1  O   -0.576615
     2  O   -0.590679
     3  O   -0.913974
     4  O   -0.849251
     5  P   -0.411727
     6  Ca   0.888986
     7  Ca   1.071243
     8  Ca   1.092900
     9  H    0.289117
 Sum of Mulliken charges=   0.00000

 Dipole moment (field-independent basis, Debye):
    X=     4.1731    Y=     0.7682    Z=    -4.2405  Tot=     5.9989
 Quadrupole moment (field-independent basis, Debye-Ang):
   XX=   -67.9016   YY=   -83.9911   ZZ=   -85.5666
   XY=    22.4435   XZ=    -0.4760   YZ=    13.2650

 Normal termination of Gaussian 03 at Mon May  4 20:10:39 2015.
