 Gaussian 03, Revision E.01,
 Gaussian 03:  EM64T-G03RevE.01 11-Sep-2007

 -------------------------------------
 # b3lyp/6-31G(d,p) pop=(ReadRadii,MK)
 -------------------------------------

 ----------
 Ca3PO4_129
 ----------
 Symbolic Z-matrix:
 Charge =  0 Multiplicity = 1

                         Standard orientation:
 ---------------------------------------------------------------------
 Center     Atomic     Atomic              Coordinates (Angstroms)
 Number     Number      Type              X           Y           Z
 ---------------------------------------------------------------------
    1          8             0        2.812120   -0.622786   -0.019584
    2          8             0        2.109790   -0.011433    1.141730
    3          8             0        1.981200   -0.368750   -1.228170
    4          8             0       -0.811312    0.198769    0.010676
    5         15             0       -1.695621    1.720527    0.211007
    6         20             0        1.103469    1.532759   -0.254670
    7         20             0        0.633261   -1.618881    0.252381
    8         20             0       -2.817170   -0.973499   -0.200313
    9          1             0       -1.691281    1.818127    1.649750
 ---------------------------------------------------------------------

 SCF Done:  E(RB+HF-LYP) =  -2675.52763565     A.U. after    8 cycles

 The electronic state is 1-A.
 Alpha  occ. eigenvalues -- -145.36858-145.36801-145.36090 -77.05686 -19.22444
 Alpha  occ. eigenvalues --  -19.13480 -19.13403 -19.10463 -15.44002 -15.43905
 Alpha  occ. eigenvalues --  -15.43165 -12.57190 -12.57143 -12.57097 -12.57078
 Alpha  occ. eigenvalues --  -12.57076 -12.56984 -12.56350 -12.56333 -12.56269
 Alpha  occ. eigenvalues --   -6.52432  -4.68930  -4.68451  -4.68141  -1.81419
 Alpha  occ. eigenvalues --   -1.81337  -1.80579  -1.11685  -1.09369  -1.09073
 Alpha  occ. eigenvalues --   -1.08899  -1.08750  -1.08547  -1.08196  -1.08100
 Alpha  occ. eigenvalues --   -1.07966  -1.04723  -0.90117  -0.89332  -0.73756
 Alpha  occ. eigenvalues --   -0.55040  -0.43725  -0.41264  -0.40889  -0.37706
 Alpha  occ. eigenvalues --   -0.34211  -0.31773  -0.28754  -0.27302  -0.25723
 Alpha  occ. eigenvalues --   -0.23772  -0.21083  -0.17899  -0.13695
 Alpha virt. eigenvalues --   -0.06995  -0.06685  -0.03045  -0.01574  -0.01003
 Alpha virt. eigenvalues --   -0.00523   0.00968   0.01021   0.01615   0.02464
 Alpha virt. eigenvalues --    0.03979   0.04715   0.05656   0.06465   0.08349

 Mulliken atomic charges:
              1
     1  O   -0.142172
     2  O   -0.542935
     3  O   -0.539804
     4  O   -0.907221
     5  P   -0.106699
     6  Ca   1.141459
     7  Ca   0.817513
     8  Ca   0.333365
     9  H   -0.053506
 Sum of Mulliken charges=   0.00000

 Dipole moment (field-independent basis, Debye):
    X=     0.8178    Y=     2.4660    Z=    -0.6451  Tot=     2.6770
 Quadrupole moment (field-independent basis, Debye-Ang):
   XX=   -98.8307   YY=   -84.3782   ZZ=   -93.3674
   XY=     7.2992   XZ=     0.1356   YZ=    -5.1352

 Normal termination of Gaussian 03 at Mon May  4 20:09:54 2015.
