 Gaussian 03, Revision E.01,
 Gaussian 03:  EM64T-G03RevE.01 11-Sep-2007

 -------------------------------------
 # b3lyp/6-31G(d,p) pop=(ReadRadii,MK)
 -------------------------------------

 ---------
 Ca3PO4_48
 ---------
 Symbolic Z-matrix:
 Charge =  0 Multiplicity = 1

                         Standard orientation:
 ---------------------------------------------------------------------
 Center     Atomic     Atomic              Coordinates (Angstroms)
 Number     Number      Type              X           Y           Z
 ---------------------------------------------------------------------
    1          8             0       -0.377155   -1.477130    0.815983
    2          8             0        3.452463    0.765800    0.003167
    3          8             0        3.421202   -0.503230   -0.569135
    4          8             0       -0.146201    0.531943   -1.352320
    5         15             0       -1.337468   -0.346094    1.671330
    6         20             0        1.449852   -0.177036    0.465590
    7         20             0       -1.398417    2.039030   -0.101883
    8         20             0       -1.603838   -1.365050   -1.066900
    9          1             0        0.307611    0.713448   -2.187620
 ---------------------------------------------------------------------

 SCF Done:  E(RB+HF-LYP) =  -2675.52724909     A.U. after   23 cycles

 The electronic state is 1-A.
 Alpha  occ. eigenvalues -- -145.40157-145.39154-145.32429 -77.06117 -19.14476
 Alpha  occ. eigenvalues --  -19.12070 -19.11813 -19.10310 -15.47284 -15.46246
 Alpha  occ. eigenvalues --  -15.39626 -12.60453 -12.60429 -12.60377 -12.59445
 Alpha  occ. eigenvalues --  -12.59398 -12.59340 -12.52848 -12.52814 -12.52648
 Alpha  occ. eigenvalues --   -6.52674  -4.69030  -4.68774  -4.68459  -1.84654
 Alpha  occ. eigenvalues --   -1.83612  -1.77375  -1.12207  -1.12134  -1.11894
 Alpha  occ. eigenvalues --   -1.11233  -1.11083  -1.10986  -1.06612  -1.05332
 Alpha  occ. eigenvalues --   -1.05223  -0.98962  -0.95742  -0.90411  -0.70084
 Alpha  occ. eigenvalues --   -0.51050  -0.47208  -0.36120  -0.34469  -0.34283
 Alpha  occ. eigenvalues --   -0.33363  -0.32883  -0.32606  -0.32300  -0.30965
 Alpha  occ. eigenvalues --   -0.17235  -0.16911  -0.16146  -0.13090
 Alpha virt. eigenvalues --   -0.11132  -0.10051  -0.05000  -0.04060  -0.03156
 Alpha virt. eigenvalues --   -0.02091  -0.01611   0.00354   0.01326   0.03261
 Alpha virt. eigenvalues --    0.03347   0.04499   0.06927   0.07310   0.08590

 Mulliken atomic charges:
              1
     1  O   -0.819289
     2  O   -0.371929
     3  O   -0.374916
     4  O   -0.835725
     5  P   -0.157086
     6  Ca   0.967418
     7  Ca   0.710563
     8  Ca   0.555939
     9  H    0.325026
 Sum of Mulliken charges=   0.00000

 Dipole moment (field-independent basis, Debye):
    X=    -6.8779    Y=     1.8256    Z=    -2.9644  Tot=     7.7089
 Quadrupole moment (field-independent basis, Debye-Ang):
   XX=  -119.0110   YY=   -75.2068   ZZ=   -93.5090
   XY=    -5.3059   XZ=    12.5668   YZ=     4.6771

 Normal termination of Gaussian 03 at Mon May  4 20:13:02 2015.
