 Gaussian 03, Revision E.01,
 Gaussian 03:  EM64T-G03RevE.01 11-Sep-2007

 -------------------------------------
 # b3lyp/6-31G(d,p) pop=(ReadRadii,MK)
 -------------------------------------

 ----------
 Ca3PO4_110
 ----------
 Symbolic Z-matrix:
 Charge =  0 Multiplicity = 1

                         Standard orientation:
 ---------------------------------------------------------------------
 Center     Atomic     Atomic              Coordinates (Angstroms)
 Number     Number      Type              X           Y           Z
 ---------------------------------------------------------------------
    1          8             0       -0.920987   -1.382510   -0.920467
    2          8             0       -1.008240    0.452216    0.766030
    3          8             0        1.007850    0.452492   -0.763107
    4          8             0        0.924294   -1.380031    0.925068
    5         15             0        0.000520   -0.551907    0.002362
    6         20             0       -2.916010   -0.744260    0.008988
    7         20             0        2.915190   -0.745116   -0.013151
    8         20             0       -0.002995    2.420179   -0.000876
    9          1             0        0.045165    4.525199    0.005174
 ---------------------------------------------------------------------

 SCF Done:  E(RB+HF-LYP) =  -2675.77066017     A.U. after    9 cycles

 The electronic state is 1-A.
 Alpha  occ. eigenvalues -- -145.39221-145.39078-145.36479 -77.20143 -19.12295
 Alpha  occ. eigenvalues --  -19.12266 -19.10023 -19.09947 -15.46328 -15.46189
 Alpha  occ. eigenvalues --  -15.43740 -12.59540 -12.59474 -12.59401 -12.59400
 Alpha  occ. eigenvalues --  -12.59335 -12.59261 -12.56989 -12.56914 -12.56710
 Alpha  occ. eigenvalues --   -6.64590  -4.81019  -4.80922  -4.80843  -1.83605
 Alpha  occ. eigenvalues --   -1.83477  -1.81368  -1.11310  -1.11287  -1.11160
 Alpha  occ. eigenvalues --   -1.11013  -1.10951  -1.10829  -1.09452  -1.09063
 Alpha  occ. eigenvalues --   -1.08530  -1.01198  -0.93215  -0.92385  -0.91614
 Alpha  occ. eigenvalues --   -0.51604  -0.43257  -0.42363  -0.41372  -0.36042
 Alpha  occ. eigenvalues --   -0.33385  -0.33053  -0.31390  -0.30858  -0.28529
 Alpha  occ. eigenvalues --   -0.27009  -0.25627  -0.21512  -0.13053
 Alpha virt. eigenvalues --   -0.11066  -0.04565  -0.03824  -0.02196  -0.02084
 Alpha virt. eigenvalues --   -0.01578  -0.00716   0.00499   0.01404   0.01708
 Alpha virt. eigenvalues --    0.04985   0.06326   0.07179   0.10940   0.11414

 Mulliken atomic charges:
              1
     1  O   -0.688367
     2  O   -0.820728
     3  O   -0.822078
     4  O   -0.687303
     5  P    1.275894
     6  Ca   0.626447
     7  Ca   0.591656
     8  Ca   0.812095
     9  H   -0.287617
 Sum of Mulliken charges=   0.00000

 Dipole moment (field-independent basis, Debye):
    X=    -0.8476    Y=    -2.1010    Z=    -0.0108  Tot=     2.2656
 Quadrupole moment (field-independent basis, Debye-Ang):
   XX=   -80.4780   YY=  -119.5388   ZZ=   -94.6883
   XY=    -0.0263   XZ=     0.0285   YZ=    -0.0956

 Normal termination of Gaussian 03 at Mon May  4 20:09:31 2015.
