 Gaussian 03, Revision E.01,
 Gaussian 03:  EM64T-G03RevE.01 11-Sep-2007

 -------------------------------------
 # b3lyp/6-31G(d,p) pop=(ReadRadii,MK)
 -------------------------------------

 ---------
 Ca3PO4_46
 ---------
 Symbolic Z-matrix:
 Charge =  0 Multiplicity = 1

                         Standard orientation:
 ---------------------------------------------------------------------
 Center     Atomic     Atomic              Coordinates (Angstroms)
 Number     Number      Type              X           Y           Z
 ---------------------------------------------------------------------
    1          8             0       -3.803021   -0.229415    0.465367
    2          8             0       -1.700331   -1.568480   -0.089400
    3          8             0        2.110559   -0.214333   -0.745674
    4          8             0        5.901809    0.293641    0.966803
    5         15             0       -3.169321   -1.626709    0.361612
    6         20             0       -3.090110    1.949881    0.087571
    7         20             0        0.009744   -0.085692   -0.582101
    8         20             0        4.120229    0.022428   -0.091604
    9          1             0        6.670400    0.416995    1.521750
 ---------------------------------------------------------------------

 SCF Done:  E(RB+HF-LYP) =  -2675.70075575     A.U. after    9 cycles

 The electronic state is 1-A.
 Alpha  occ. eigenvalues -- -145.37484-145.34033-145.32453 -77.15623 -19.14231
 Alpha  occ. eigenvalues --  -19.13653 -19.05090 -19.02791 -15.44655 -15.41264
 Alpha  occ. eigenvalues --  -15.39855 -12.57824 -12.57818 -12.57706 -12.54506
 Alpha  occ. eigenvalues --  -12.54435 -12.54258 -12.53087 -12.53084 -12.52756
 Alpha  occ. eigenvalues --   -6.61391  -4.77824  -4.77595  -4.77165  -1.81996
 Alpha  occ. eigenvalues --   -1.78929  -1.77843  -1.09495  -1.09443  -1.09243
 Alpha  occ. eigenvalues --   -1.06973  -1.06724  -1.06248  -1.05985  -1.05970
 Alpha  occ. eigenvalues --   -1.04991  -1.00055  -0.94720  -0.86156  -0.76721
 Alpha  occ. eigenvalues --   -0.53563  -0.43051  -0.39148  -0.38937  -0.38517
 Alpha  occ. eigenvalues --   -0.31679  -0.30136  -0.27228  -0.22754  -0.22658
 Alpha  occ. eigenvalues --   -0.22627  -0.20919  -0.20780  -0.14637
 Alpha virt. eigenvalues --   -0.06787  -0.06046  -0.05067  -0.03799  -0.01432
 Alpha virt. eigenvalues --   -0.00188  -0.00057   0.00406   0.01913   0.02620
 Alpha virt. eigenvalues --    0.03488   0.04491   0.05499   0.09178   0.09622

 Mulliken atomic charges:
              1
     1  O   -0.650963
     2  O   -0.673590
     3  O   -1.020457
     4  O   -0.843118
     5  P    0.745892
     6  Ca   0.307604
     7  Ca   0.774606
     8  Ca   1.088587
     9  H    0.271438
 Sum of Mulliken charges=   0.00000

 Dipole moment (field-independent basis, Debye):
    X=    -3.1806    Y=     1.2133    Z=    -0.4895  Tot=     3.4392
 Quadrupole moment (field-independent basis, Debye-Ang):
   XX=   -91.7941   YY=   -90.8592   ZZ=   -84.7825
   XY=    -9.2836   XZ=    -5.1157   YZ=     1.3708

 Normal termination of Gaussian 03 at Mon May  4 20:12:23 2015.
