 Gaussian 03, Revision E.01,
 Gaussian 03:  EM64T-G03RevE.01 11-Sep-2007

 -------------------------------------
 # b3lyp/6-31G(d,p) pop=(ReadRadii,MK)
 -------------------------------------

 ----------
 Ca3PO4_215
 ----------
 Symbolic Z-matrix:
 Charge =  0 Multiplicity = 1

                         Standard orientation:
 ---------------------------------------------------------------------
 Center     Atomic     Atomic              Coordinates (Angstroms)
 Number     Number      Type              X           Y           Z
 ---------------------------------------------------------------------
    1          8             0       -3.238249    0.174995   -0.192925
    2          8             0       -3.346301   -2.452478   -0.166861
    3          8             0       -1.092270   -1.159479    0.191501
    4          8             0        2.903380   -0.101048    0.212681
    5         15             0       -2.588650   -1.191978   -0.060919
    6         20             0       -2.294848    2.290112   -0.079029
    7         20             0        0.807953    0.140953    0.336554
    8         20             0        4.984470   -0.116885   -0.198978
    9          1             0        7.065770   -0.099863   -0.612315
 ---------------------------------------------------------------------

 SCF Done:  E(RB+HF-LYP) =  -2675.66089015     A.U. after   10 cycles

 The electronic state is 1-A.
 Alpha  occ. eigenvalues -- -145.39639-145.34760-145.33828 -77.22623 -19.16685
 Alpha  occ. eigenvalues --  -19.16374 -19.14538 -19.00828 -15.46798 -15.41985
 Alpha  occ. eigenvalues --  -15.41217 -12.59963 -12.59959 -12.59854 -12.55224
 Alpha  occ. eigenvalues --  -12.55169 -12.54968 -12.54446 -12.54446 -12.54110
 Alpha  occ. eigenvalues --   -6.67935  -4.84541  -4.84072  -4.83981  -1.84118
 Alpha  occ. eigenvalues --   -1.79654  -1.79053  -1.11599  -1.11578  -1.11405
 Alpha  occ. eigenvalues --   -1.07715  -1.07656  -1.07162  -1.07153  -1.06933
 Alpha  occ. eigenvalues --   -1.05478  -1.04964  -0.98063  -0.97375  -0.75173
 Alpha  occ. eigenvalues --   -0.54454  -0.46515  -0.43700  -0.43142  -0.37320
 Alpha  occ. eigenvalues --   -0.34850  -0.34554  -0.32530  -0.29641  -0.23103
 Alpha  occ. eigenvalues --   -0.20049  -0.19549  -0.19517  -0.16442
 Alpha virt. eigenvalues --   -0.07664  -0.05148  -0.05083  -0.04338  -0.01630
 Alpha virt. eigenvalues --   -0.01056  -0.00869  -0.00799   0.00166   0.00536
 Alpha virt. eigenvalues --    0.02712   0.03691   0.05464   0.05703   0.09175

 Mulliken atomic charges:
              1
     1  O   -0.640732
     2  O   -0.484051
     3  O   -0.652961
     4  O   -0.938153
     5  P    1.139933
     6  Ca   0.273441
     7  Ca   0.743001
     8  Ca   0.834051
     9  H   -0.274530
 Sum of Mulliken charges=   0.00000

 Dipole moment (field-independent basis, Debye):
    X=    -2.1143    Y=     3.6522    Z=     0.8435  Tot=     4.3035
 Quadrupole moment (field-independent basis, Debye-Ang):
   XX=  -138.4967   YY=   -96.1255   ZZ=   -83.7778
   XY=   -16.8007   XZ=     5.0693   YZ=    -1.1528

 Normal termination of Gaussian 03 at Mon May  4 20:11:43 2015.
