 Gaussian 03, Revision E.01,
 Gaussian 03:  EM64T-G03RevE.01 11-Sep-2007

 -------------------------------------
 # b3lyp/6-31G(d,p) pop=(ReadRadii,MK)
 -------------------------------------

 ----------
 Ca3PO4_123
 ----------
 Symbolic Z-matrix:
 Charge =  0 Multiplicity = 1

                         Standard orientation:
 ---------------------------------------------------------------------
 Center     Atomic     Atomic              Coordinates (Angstroms)
 Number     Number      Type              X           Y           Z
 ---------------------------------------------------------------------
    1          8             0       -1.423982   -1.320210   -1.265790
    2          8             0       -0.502478    0.387604    0.926607
    3          8             0       -1.353372   -1.875030    0.141695
    4          8             0        1.276608   -1.420260    0.356321
    5         15             0       -0.120923   -1.129500    0.876845
    6         20             0        3.032519   -0.276571   -0.577106
    7         20             0        0.403290    2.414880    0.198621
    8         20             0       -2.529841    0.484251   -0.450490
    9          1             0       -0.279722   -1.685530    2.156160
 ---------------------------------------------------------------------

 SCF Done:  E(RB+HF-LYP) =  -2675.58699172     A.U. after   13 cycles

 The electronic state is 1-A.
 Alpha  occ. eigenvalues -- -145.39449-145.38058-145.37685 -77.22066 -19.19526
 Alpha  occ. eigenvalues --  -19.14690 -19.13495 -19.12453 -15.46563 -15.45199
 Alpha  occ. eigenvalues --  -15.44802 -12.59751 -12.59689 -12.59661 -12.58373
 Alpha  occ. eigenvalues --  -12.58364 -12.58255 -12.58012 -12.57961 -12.57861
 Alpha  occ. eigenvalues --   -6.67005  -4.83394  -4.83295  -4.83202  -1.83831
 Alpha  occ. eigenvalues --   -1.82481  -1.82163  -1.11426  -1.11282  -1.11056
 Alpha  occ. eigenvalues --   -1.10226  -1.09978  -1.09902  -1.09824  -1.09760
 Alpha  occ. eigenvalues --   -1.09584  -1.06041  -0.99917  -0.96117  -0.81720
 Alpha  occ. eigenvalues --   -0.58571  -0.47590  -0.46318  -0.45485  -0.39439
 Alpha  occ. eigenvalues --   -0.38662  -0.36038  -0.33318  -0.32090  -0.31319
 Alpha  occ. eigenvalues --   -0.23626  -0.23088  -0.16700  -0.13117
 Alpha virt. eigenvalues --   -0.08751  -0.04959  -0.04520  -0.02627  -0.01911
 Alpha virt. eigenvalues --   -0.01525  -0.00508   0.00758   0.01643   0.01892
 Alpha virt. eigenvalues --    0.04047   0.04930   0.06195   0.08012   0.08716

 Mulliken atomic charges:
              1
     1  O   -0.479314
     2  O   -0.764270
     3  O   -0.389880
     4  O   -0.666344
     5  P    1.196826
     6  Ca   0.338746
     7  Ca   0.226108
     8  Ca   0.613693
     9  H   -0.075564
 Sum of Mulliken charges=   0.00000

 Dipole moment (field-independent basis, Debye):
    X=    -0.1016    Y=     1.2406    Z=     2.3132  Tot=     2.6268
 Quadrupole moment (field-independent basis, Debye-Ang):
   XX=   -91.9171   YY=  -103.8325   ZZ=   -95.5781
   XY=    -1.8845   XZ=    -0.6261   YZ=    -0.1605

 Normal termination of Gaussian 03 at Mon May  4 20:09:48 2015.
