 Gaussian 03, Revision E.01,
 Gaussian 03:  EM64T-G03RevE.01 11-Sep-2007

 -------------------------------------
 # b3lyp/6-31G(d,p) pop=(ReadRadii,MK)
 -------------------------------------

 ---------
 Ca3PO4_45
 ---------
 Symbolic Z-matrix:
 Charge =  0 Multiplicity = 1

                         Standard orientation:
 ---------------------------------------------------------------------
 Center     Atomic     Atomic              Coordinates (Angstroms)
 Number     Number      Type              X           Y           Z
 ---------------------------------------------------------------------
    1          8             0        2.034650    0.258702    0.576197
    2          8             0       -3.724731   -1.372988   -0.756215
    3          8             0       -1.365889    2.165821   -0.021508
    4          8             0       -3.542211   -1.566738    0.741299
    5         15             0        0.887063   -0.960755    0.122333
    6         20             0        3.640030   -1.140462   -0.211671
    7         20             0       -2.229390    0.176266   -0.121354
    8         20             0        0.730135    2.016310   -0.013245
    9          1             0       -3.336001   -2.509348    0.772240
 ---------------------------------------------------------------------

 SCF Done:  E(RB+HF-LYP) =  -2675.50950412     A.U. after   12 cycles

 The electronic state is 1-A.
 Alpha  occ. eigenvalues -- -145.40179-145.34635-145.28944 -77.07265 -19.15049
 Alpha  occ. eigenvalues --  -19.12069 -19.07336 -18.99472 -15.47308 -15.41811
 Alpha  occ. eigenvalues --  -15.36231 -12.60506 -12.60462 -12.60374 -12.55035
 Alpha  occ. eigenvalues --  -12.55011 -12.54796 -12.49465 -12.49438 -12.49187
 Alpha  occ. eigenvalues --   -6.53843  -4.70310  -4.70050  -4.69414  -1.84601
 Alpha  occ. eigenvalues --   -1.79486  -1.74075  -1.12231  -1.11936  -1.11926
 Alpha  occ. eigenvalues --   -1.07435  -1.07405  -1.06499  -1.03285  -1.02094
 Alpha  occ. eigenvalues --   -1.02000  -0.97955  -0.91555  -0.76147  -0.73322
 Alpha  occ. eigenvalues --   -0.51954  -0.44744  -0.35097  -0.34803  -0.33498
 Alpha  occ. eigenvalues --   -0.32748  -0.32381  -0.20268  -0.19351  -0.18868
 Alpha  occ. eigenvalues --   -0.17652  -0.17332  -0.16879  -0.14873
 Alpha virt. eigenvalues --   -0.11518  -0.07910  -0.04182  -0.03741  -0.01398
 Alpha virt. eigenvalues --   -0.00652   0.00013   0.01136   0.01935   0.02885
 Alpha virt. eigenvalues --    0.03768   0.05451   0.06831   0.07394   0.08769

 Mulliken atomic charges:
              1
     1  O   -0.826962
     2  O   -0.517167
     3  O   -0.880674
     4  O   -0.436499
     5  P   -0.222828
     6  Ca   0.587967
     7  Ca   1.061306
     8  Ca   0.896919
     9  H    0.337937
 Sum of Mulliken charges=   0.00000

 Dipole moment (field-independent basis, Debye):
    X=    11.2481    Y=     2.0234    Z=     0.9085  Tot=    11.4647
 Quadrupole moment (field-independent basis, Debye-Ang):
   XX=   -95.4157   YY=   -83.1345   ZZ=   -87.2305
   XY=     2.9950   XZ=    -3.3670   YZ=    -4.9435

 Normal termination of Gaussian 03 at Mon May  4 20:12:29 2015.
