 Gaussian 03, Revision E.01,
 Gaussian 03:  EM64T-G03RevE.01 11-Sep-2007

 -------------------------------------
 # b3lyp/6-31G(d,p) pop=(ReadRadii,MK)
 -------------------------------------

 ----------
 Ca3PO4_202
 ----------
 Symbolic Z-matrix:
 Charge =  0 Multiplicity = 1

                         Standard orientation:
 ---------------------------------------------------------------------
 Center     Atomic     Atomic              Coordinates (Angstroms)
 Number     Number      Type              X           Y           Z
 ---------------------------------------------------------------------
    1          8             0       -0.148708   -0.061536    0.457246
    2          8             0       -2.599448    0.265326    0.082876
    3          8             0        2.862362    0.024681   -0.231813
    4          8             0       -0.794116    2.271521   -0.190690
    5         15             0       -1.427497    0.889366    0.897390
    6         20             0       -1.666749   -1.701758   -0.685793
    7         20             0        1.372593    1.516500   -0.510999
    8         20             0        1.707591   -1.632191    0.484163
    9          1             0       -1.416965    3.008542   -0.149220
 ---------------------------------------------------------------------

 SCF Done:  E(RB+HF-LYP) =  -2675.72440136     A.U. after   10 cycles

 The electronic state is 1-A.
 Alpha  occ. eigenvalues -- -145.36462-145.34273-145.33898 -77.14750 -19.16151
 Alpha  occ. eigenvalues --  -19.11768 -19.09424 -18.99250 -15.43626 -15.41477
 Alpha  occ. eigenvalues --  -15.41034 -12.56826 -12.56791 -12.56662 -12.54713
 Alpha  occ. eigenvalues --  -12.54658 -12.54465 -12.54252 -12.54202 -12.54070
 Alpha  occ. eigenvalues --   -6.60035  -4.76512  -4.76316  -4.75750  -1.81030
 Alpha  occ. eigenvalues --   -1.79207  -1.78534  -1.08708  -1.08670  -1.08289
 Alpha  occ. eigenvalues --   -1.07325  -1.07237  -1.06622  -1.06340  -1.06115
 Alpha  occ. eigenvalues --   -1.05300  -0.99792  -0.95259  -0.90843  -0.73312
 Alpha  occ. eigenvalues --   -0.55421  -0.47879  -0.41544  -0.38825  -0.37660
 Alpha  occ. eigenvalues --   -0.33383  -0.31899  -0.28493  -0.27567  -0.22249
 Alpha  occ. eigenvalues --   -0.19194  -0.17523  -0.17358  -0.12995
 Alpha virt. eigenvalues --   -0.06841  -0.06185  -0.02840  -0.01399  -0.00816
 Alpha virt. eigenvalues --   -0.00173   0.01106   0.02186   0.02279   0.03513
 Alpha virt. eigenvalues --    0.03860   0.04712   0.06560   0.08052   0.10108

 Mulliken atomic charges:
              1
     1  O   -0.867451
     2  O   -0.718502
     3  O   -0.888111
     4  O   -0.733701
     5  P    0.905602
     6  Ca   0.310308
     7  Ca   0.949604
     8  Ca   0.712525
     9  H    0.329726
 Sum of Mulliken charges=   0.00000

 Dipole moment (field-independent basis, Debye):
    X=    -0.2650    Y=     4.0938    Z=    -0.4077  Tot=     4.1225
 Quadrupole moment (field-independent basis, Debye-Ang):
   XX=  -106.8680   YY=   -77.7822   ZZ=   -87.7266
   XY=     3.9525   XZ=     6.6625   YZ=    -9.9847

 Normal termination of Gaussian 03 at Mon May  4 20:11:34 2015.
