 Gaussian 03, Revision E.01,
 Gaussian 03:  EM64T-G03RevE.01 11-Sep-2007

 -------------------------------------
 # b3lyp/6-31G(d,p) pop=(ReadRadii,MK)
 -------------------------------------

 --------
 Ca3PO4_8
 --------
 Symbolic Z-matrix:
 Charge =  0 Multiplicity = 1

                         Standard orientation:
 ---------------------------------------------------------------------
 Center     Atomic     Atomic              Coordinates (Angstroms)
 Number     Number      Type              X           Y           Z
 ---------------------------------------------------------------------
    1          8             0        0.863414   -1.857861   -0.398131
    2          8             0       -1.570530    1.255189   -0.014297
    3          8             0        0.992590    0.112436    1.120090
    4          8             0       -0.802809    0.183994   -0.781191
    5         15             0       -0.027075   -0.972469    0.520162
    6         20             0        0.571916    2.092849   -0.045849
    7         20             0        2.844889   -0.613269   -0.253512
    8         20             0       -2.943421   -0.564617   -0.056112
    9          1             0       -4.922891   -1.262290   -0.104735
 ---------------------------------------------------------------------

 SCF Done:  E(RB+HF-LYP) =  -2675.62638239     A.U. after   12 cycles

 The electronic state is 1-A.
 Alpha  occ. eigenvalues -- -145.38282-145.37812-145.37053 -77.15705 -19.19423
 Alpha  occ. eigenvalues --  -19.15815 -19.11851 -19.10818 -15.45393 -15.44925
 Alpha  occ. eigenvalues --  -15.44284 -12.58598 -12.58550 -12.58456 -12.58136
 Alpha  occ. eigenvalues --  -12.58072 -12.58002 -12.57513 -12.57480 -12.57265
 Alpha  occ. eigenvalues --   -6.61170  -4.77668  -4.77414  -4.76946  -1.82698
 Alpha  occ. eigenvalues --   -1.82318  -1.81848  -1.11094  -1.10480  -1.10243
 Alpha  occ. eigenvalues --   -1.09992  -1.09906  -1.09744  -1.09732  -1.09582
 Alpha  occ. eigenvalues --   -1.09028  -1.02495  -0.97511  -0.92000  -0.81741
 Alpha  occ. eigenvalues --   -0.53870  -0.44236  -0.42244  -0.41772  -0.39022
 Alpha  occ. eigenvalues --   -0.37220  -0.33293  -0.29713  -0.28677  -0.27785
 Alpha  occ. eigenvalues --   -0.26554  -0.23871  -0.21500  -0.13845
 Alpha virt. eigenvalues --   -0.08674  -0.04221  -0.02923  -0.02414  -0.02263
 Alpha virt. eigenvalues --   -0.00832  -0.00561   0.00128   0.01031   0.01992
 Alpha virt. eigenvalues --    0.02467   0.04109   0.05694   0.06106   0.07126

 Mulliken atomic charges:
              1
     1  O   -0.707904
     2  O   -0.567907
     3  O   -0.793060
     4  O   -0.519284
     5  P    0.863042
     6  Ca   0.618372
     7  Ca   0.505701
     8  Ca   0.883689
     9  H   -0.282650
 Sum of Mulliken charges=   0.00000

 Dipole moment (field-independent basis, Debye):
    X=     2.5411    Y=     2.0959    Z=     0.8467  Tot=     3.4011
 Quadrupole moment (field-independent basis, Debye-Ang):
   XX=  -116.5128   YY=   -89.3328   ZZ=   -92.0798
   XY=   -17.0462   XZ=     0.9965   YZ=     0.8966

 Normal termination of Gaussian 03 at Mon May  4 20:13:50 2015.
