 Gaussian 03, Revision E.01,
 Gaussian 03:  EM64T-G03RevE.01 11-Sep-2007

 -------------------------------------
 # b3lyp/6-31G(d,p) pop=(ReadRadii,MK)
 -------------------------------------

 ---------
 Ca3PO4_57
 ---------
 Symbolic Z-matrix:
 Charge =  0 Multiplicity = 1

                         Standard orientation:
 ---------------------------------------------------------------------
 Center     Atomic     Atomic              Coordinates (Angstroms)
 Number     Number      Type              X           Y           Z
 ---------------------------------------------------------------------
    1          8             0       -2.615988   -1.742552    0.139807
    2          8             0       -1.749671    0.575883   -0.154580
    3          8             0        1.301830   -0.171663   -0.113196
    4          8             0        0.444368    3.848092    0.278631
    5         15             0       -3.034280   -0.273925   -0.027177
    6         20             0        0.278414    1.809112   -0.160670
    7         20             0        3.258252   -1.128944    0.010791
    8         20             0       -0.239507   -1.716469    0.081807
    9          1             0        0.526703    4.756822    0.563792
 ---------------------------------------------------------------------

 SCF Done:  E(RB+HF-LYP) =  -2675.76871866     A.U. after   11 cycles

 The electronic state is 1-A.
 Alpha  occ. eigenvalues -- -145.36672-145.35426-145.30872 -77.17984 -19.16163
 Alpha  occ. eigenvalues --  -19.15715 -19.04336 -19.03128 -15.43816 -15.42613
 Alpha  occ. eigenvalues --  -15.38174 -12.57049 -12.56985 -12.56838 -12.55794
 Alpha  occ. eigenvalues --  -12.55790 -12.55637 -12.51430 -12.51341 -12.51146
 Alpha  occ. eigenvalues --   -6.63790  -4.80227  -4.79975  -4.79573  -1.81320
 Alpha  occ. eigenvalues --   -1.80063  -1.76037  -1.09234  -1.09182  -1.08582
 Alpha  occ. eigenvalues --   -1.07660  -1.07647  -1.07080  -1.04433  -1.04255
 Alpha  occ. eigenvalues --   -1.03391  -1.02012  -0.96461  -0.84233  -0.79477
 Alpha  occ. eigenvalues --   -0.55346  -0.44364  -0.41768  -0.41207  -0.36583
 Alpha  occ. eigenvalues --   -0.33327  -0.32042  -0.29596  -0.25639  -0.24948
 Alpha  occ. eigenvalues --   -0.23575  -0.20777  -0.20739  -0.13648
 Alpha virt. eigenvalues --   -0.08146  -0.07433  -0.03820  -0.03466  -0.01584
 Alpha virt. eigenvalues --   -0.01017  -0.00141   0.00485   0.01939   0.02931
 Alpha virt. eigenvalues --    0.03648   0.04564   0.06425   0.08246   0.09904

 Mulliken atomic charges:
              1
     1  O   -0.636362
     2  O   -0.686675
     3  O   -0.952850
     4  O   -0.827400
     5  P    0.758675
     6  Ca   1.125496
     7  Ca   0.391659
     8  Ca   0.560283
     9  H    0.267174
 Sum of Mulliken charges=   0.00000

 Dipole moment (field-independent basis, Debye):
    X=    -0.6890    Y=    -1.6274    Z=    -0.9098  Tot=     1.9877
 Quadrupole moment (field-independent basis, Debye-Ang):
   XX=   -94.0562   YY=  -106.5830   ZZ=   -85.7153
   XY=     3.0620   XZ=    -0.2816   YZ=    -1.1043

 Normal termination of Gaussian 03 at Mon May  4 20:12:53 2015.
