 Gaussian 03, Revision E.01,
 Gaussian 03:  EM64T-G03RevE.01 11-Sep-2007

 -------------------------------------
 # b3lyp/6-31G(d,p) pop=(ReadRadii,MK)
 -------------------------------------

 ---------
 Ca3PO4_27
 ---------
 Symbolic Z-matrix:
 Charge =  0 Multiplicity = 1

                         Standard orientation:
 ---------------------------------------------------------------------
 Center     Atomic     Atomic              Coordinates (Angstroms)
 Number     Number      Type              X           Y           Z
 ---------------------------------------------------------------------
    1          8             0       -1.664421   -0.007150    1.364690
    2          8             0       -0.116924    0.000531   -0.663975
    3          8             0        0.610457    1.301661    1.379360
    4          8             0        0.616274   -1.305639    1.374260
    5         15             0       -0.156093   -0.003054    1.046340
    6         20             0        1.527620   -1.769929   -0.657484
    7         20             0        1.518578    1.778041   -0.651058
    8         20             0       -2.505861   -0.002482   -0.747877
    9          1             0       -4.028431    0.017973   -2.201380
 ---------------------------------------------------------------------

 SCF Done:  E(RB+HF-LYP) =  -2675.77909350     A.U. after    8 cycles

 The electronic state is 1-A.
 Alpha  occ. eigenvalues -- -145.39473-145.39466-145.36218 -77.19530 -19.12967
 Alpha  occ. eigenvalues --  -19.09693 -19.09533 -19.09501 -15.46567 -15.46561
 Alpha  occ. eigenvalues --  -15.43504 -12.59779 -12.59773 -12.59719 -12.59713
 Alpha  occ. eigenvalues --  -12.59636 -12.59630 -12.56754 -12.56677 -12.56467
 Alpha  occ. eigenvalues --   -6.63955  -4.80467  -4.80213  -4.80205  -1.83889
 Alpha  occ. eigenvalues --   -1.83859  -1.81180  -1.11908  -1.11498  -1.11473
 Alpha  occ. eigenvalues --   -1.11220  -1.11158  -1.11104  -1.09297  -1.08878
 Alpha  occ. eigenvalues --   -1.08364  -1.00444  -0.91944  -0.91625  -0.91570
 Alpha  occ. eigenvalues --   -0.50812  -0.42722  -0.41177  -0.40875  -0.35173
 Alpha  occ. eigenvalues --   -0.34682  -0.31004  -0.30693  -0.29697  -0.27745
 Alpha  occ. eigenvalues --   -0.26969  -0.24738  -0.21679  -0.15466
 Alpha virt. eigenvalues --   -0.10128  -0.05501  -0.03870  -0.03070  -0.02622
 Alpha virt. eigenvalues --   -0.00692  -0.00240   0.00299   0.00588   0.02578
 Alpha virt. eigenvalues --    0.05073   0.06503   0.07694   0.08975   0.10958

 Mulliken atomic charges:
              1
     1  O   -0.694263
     2  O   -0.917657
     3  O   -0.698623
     4  O   -0.699183
     5  P    1.309930
     6  Ca   0.570852
     7  Ca   0.574099
     8  Ca   0.848713
     9  H   -0.293868
 Sum of Mulliken charges=   0.00000

 Dipole moment (field-independent basis, Debye):
    X=     3.5302    Y=    -0.0165    Z=    -3.2275  Tot=     4.7832
 Quadrupole moment (field-independent basis, Debye-Ang):
   XX=  -106.0718   YY=   -70.1459   ZZ=  -114.4530
   XY=     0.2259   XZ=   -10.0504   YZ=     0.1675

 Normal termination of Gaussian 03 at Mon May  4 20:12:01 2015.
