 Gaussian 03, Revision E.01,
 Gaussian 03:  EM64T-G03RevE.01 11-Sep-2007

 -------------------------------------
 # b3lyp/6-31G(d,p) pop=(ReadRadii,MK)
 -------------------------------------

 ---------
 Ca3PO4_32
 ---------
 Symbolic Z-matrix:
 Charge =  0 Multiplicity = 1

                         Standard orientation:
 ---------------------------------------------------------------------
 Center     Atomic     Atomic              Coordinates (Angstroms)
 Number     Number      Type              X           Y           Z
 ---------------------------------------------------------------------
    1          8             0       -1.831911   -0.822825    0.116989
    2          8             0        2.524359   -1.120421    0.790365
    3          8             0        2.504049   -1.153841   -0.780337
    4          8             0        0.496760    1.214699   -0.016152
    5         15             0       -3.490251   -0.665575   -0.181287
    6         20             0        0.360724   -1.159671    0.032129
    7         20             0        2.657569    0.944090   -0.040885
    8         20             0       -1.677791    1.498839    0.041606
    9          1             0       -4.002291   -0.622406    1.175400
 ---------------------------------------------------------------------

 SCF Done:  E(RB+HF-LYP) =  -2675.62787283     A.U. after    8 cycles

 The electronic state is 1-A.
 Alpha  occ. eigenvalues -- -145.34454-145.33238-145.29624 -77.03508 -19.07718
 Alpha  occ. eigenvalues --  -19.07713 -19.06392 -19.02521 -15.41571 -15.40482
 Alpha  occ. eigenvalues --  -15.36837 -12.54758 -12.54741 -12.54638 -12.53722
 Alpha  occ. eigenvalues --  -12.53627 -12.53493 -12.50056 -12.50021 -12.49853
 Alpha  occ. eigenvalues --   -6.50007  -4.66426  -4.65998  -4.65854  -1.79226
 Alpha  occ. eigenvalues --   -1.78188  -1.74653  -1.07576  -1.06926  -1.06489
 Alpha  occ. eigenvalues --   -1.06208  -1.06056  -1.05099  -1.02664  -1.02454
 Alpha  occ. eigenvalues --   -1.02322  -0.90117  -0.86940  -0.77186  -0.71583
 Alpha  occ. eigenvalues --   -0.51127  -0.34384  -0.31341  -0.29740  -0.29428
 Alpha  occ. eigenvalues --   -0.28775  -0.28139  -0.23170  -0.22078  -0.21386
 Alpha  occ. eigenvalues --   -0.19509  -0.18127  -0.16702  -0.12419
 Alpha virt. eigenvalues --   -0.08474  -0.06057  -0.01738  -0.01681  -0.00244
 Alpha virt. eigenvalues --    0.00539   0.01775   0.02190   0.02653   0.03529
 Alpha virt. eigenvalues --    0.05380   0.06462   0.07362   0.08996   0.09626

 Mulliken atomic charges:
              1
     1  O   -0.854649
     2  O   -0.582937
     3  O   -0.582448
     4  O   -0.980039
     5  P    0.054963
     6  Ca   1.051300
     7  Ca   1.127852
     8  Ca   0.861993
     9  H   -0.096035
 Sum of Mulliken charges=   0.00000

 Dipole moment (field-independent basis, Debye):
    X=     6.5466    Y=     7.7084    Z=     0.5250  Tot=    10.1269
 Quadrupole moment (field-independent basis, Debye-Ang):
   XX=   -97.3360   YY=   -73.1363   ZZ=   -81.7169
   XY=    16.3683   XZ=    -3.4680   YZ=    -0.2769

 Normal termination of Gaussian 03 at Mon May  4 20:12:01 2015.
