 Gaussian 03, Revision E.01,
 Gaussian 03:  EM64T-G03RevE.01 11-Sep-2007

 -------------------------------------
 # b3lyp/6-31G(d,p) pop=(ReadRadii,MK)
 -------------------------------------

 ---------
 Ca3PO4_41
 ---------
 Symbolic Z-matrix:
 Charge =  0 Multiplicity = 1

                         Standard orientation:
 ---------------------------------------------------------------------
 Center     Atomic     Atomic              Coordinates (Angstroms)
 Number     Number      Type              X           Y           Z
 ---------------------------------------------------------------------
    1          8             0       -0.888909    0.241367   -0.537573
    2          8             0        2.736850    0.134404    0.202218
    3          8             0        2.066060   -0.004308   -1.076220
    4          8             0        2.242080   -0.932414    1.093940
    5         15             0       -0.794513    0.228602    1.449490
    6         20             0       -3.091710   -0.081927   -0.222343
    7         20             0        0.752849    1.791041   -0.325156
    8         20             0        0.399562   -1.632269   -0.490036
    9          1             0        1.455050   -0.478332    1.549430
 ---------------------------------------------------------------------

 SCF Done:  E(RB+HF-LYP) =  -2675.46652616     A.U. after   11 cycles

 The electronic state is 1-A.
 Alpha  occ. eigenvalues -- -145.37218-145.36983-145.36491 -77.01818 -19.26366
 Alpha  occ. eigenvalues --  -19.21496 -19.15601 -19.08859 -15.44281 -15.44034
 Alpha  occ. eigenvalues --  -15.43622 -12.57482 -12.57411 -12.57401 -12.57227
 Alpha  occ. eigenvalues --  -12.57177 -12.57158 -12.56817 -12.56770 -12.56692
 Alpha  occ. eigenvalues --   -6.48661  -4.65269  -4.64487  -4.64422  -1.81654
 Alpha  occ. eigenvalues --   -1.81401  -1.80950  -1.14590  -1.09530  -1.09212
 Alpha  occ. eigenvalues --   -1.09078  -1.08775  -1.08649  -1.08535  -1.08431
 Alpha  occ. eigenvalues --   -1.08309  -1.08139  -0.97367  -0.86031  -0.78948
 Alpha  occ. eigenvalues --   -0.53427  -0.48996  -0.47088  -0.45152  -0.37602
 Alpha  occ. eigenvalues --   -0.33410  -0.31153  -0.30441  -0.29152  -0.28927
 Alpha  occ. eigenvalues --   -0.24243  -0.17371  -0.15751  -0.12821
 Alpha virt. eigenvalues --   -0.08274  -0.07681  -0.03491  -0.03069  -0.01845
 Alpha virt. eigenvalues --   -0.00823  -0.00126   0.00274   0.01168   0.01708
 Alpha virt. eigenvalues --    0.02744   0.03358   0.04574   0.06289   0.06767

 Mulliken atomic charges:
              1
     1  O   -0.890534
     2  O   -0.102401
     3  O   -0.514853
     4  O   -0.339272
     5  P   -0.506347
     6  Ca   0.407913
     7  Ca   0.872380
     8  Ca   0.765509
     9  H    0.307605
 Sum of Mulliken charges=   0.00000

 Dipole moment (field-independent basis, Debye):
    X=     0.2854    Y=     1.4829    Z=    -3.0351  Tot=     3.3901
 Quadrupole moment (field-independent basis, Debye-Ang):
   XX=  -100.9889   YY=   -78.1320   ZZ=  -101.4540
   XY=     1.4226   XZ=    -1.0802   YZ=    -1.6341

 Normal termination of Gaussian 03 at Mon May  4 20:12:31 2015.
