 Gaussian 03, Revision E.01,
 Gaussian 03:  EM64T-G03RevE.01 11-Sep-2007

 -------------------------------------
 # b3lyp/6-31G(d,p) pop=(ReadRadii,MK)
 -------------------------------------

 ----------
 Ca3PO4_210
 ----------
 Symbolic Z-matrix:
 Charge =  0 Multiplicity = 1

                         Standard orientation:
 ---------------------------------------------------------------------
 Center     Atomic     Atomic              Coordinates (Angstroms)
 Number     Number      Type              X           Y           Z
 ---------------------------------------------------------------------
    1          8             0       -0.256335   -1.443329    0.781986
    2          8             0       -0.491056    0.564012   -1.354630
    3          8             0        3.583451   -0.369272   -0.597517
    4          8             0        3.458021    0.577867    0.585328
    5         15             0       -1.304829   -0.536540    1.748870
    6         20             0       -1.366868    2.042341    0.021288
    7         20             0       -1.758340   -1.221828   -0.942055
    8         20             0        1.384691   -0.156773   -0.218342
    9          1             0        4.030131    0.139082    1.227770
 ---------------------------------------------------------------------

 SCF Done:  E(RB+HF-LYP) =  -2675.55856550     A.U. after   11 cycles

 The electronic state is 1-A.
 Alpha  occ. eigenvalues -- -145.36994-145.36987-145.30352 -77.06115 -19.15919
 Alpha  occ. eigenvalues --  -19.09153 -19.08268 -19.03546 -15.44122 -15.44089
 Alpha  occ. eigenvalues --  -15.37577 -12.57320 -12.57299 -12.57289 -12.57220
 Alpha  occ. eigenvalues --  -12.57182 -12.57164 -12.50827 -12.50739 -12.50586
 Alpha  occ. eigenvalues --   -6.52531  -4.68881  -4.68673  -4.68300  -1.81624
 Alpha  occ. eigenvalues --   -1.81559  -1.75378  -1.09508  -1.09363  -1.09292
 Alpha  occ. eigenvalues --   -1.08972  -1.08837  -1.08363  -1.04613  -1.03567
 Alpha  occ. eigenvalues --   -1.03088  -0.99088  -0.89619  -0.78476  -0.76967
 Alpha  occ. eigenvalues --   -0.49880  -0.45615  -0.35708  -0.33470  -0.32363
 Alpha  occ. eigenvalues --   -0.31769  -0.30481  -0.24343  -0.24099  -0.21703
 Alpha  occ. eigenvalues --   -0.20722  -0.18130  -0.15265  -0.14452
 Alpha virt. eigenvalues --   -0.09483  -0.08449  -0.04138  -0.02318  -0.01560
 Alpha virt. eigenvalues --   -0.00573  -0.00146   0.01664   0.02062   0.02751
 Alpha virt. eigenvalues --    0.04457   0.05024   0.07242   0.08443   0.09237

 Mulliken atomic charges:
              1
     1  O   -0.812125
     2  O   -0.931184
     3  O   -0.518649
     4  O   -0.437250
     5  P   -0.067452
     6  Ca   0.607416
     7  Ca   0.847866
     8  Ca   0.971325
     9  H    0.340053
 Sum of Mulliken charges=   0.00000

 Dipole moment (field-independent basis, Debye):
    X=    -6.2684    Y=     0.2301    Z=    -3.1130  Tot=     7.0026
 Quadrupole moment (field-independent basis, Debye-Ang):
   XX=   -98.1217   YY=   -71.1106   ZZ=   -94.3140
   XY=    -0.3317   XZ=    19.3305   YZ=    12.0745

 Normal termination of Gaussian 03 at Mon May  4 20:11:44 2015.
