 Gaussian 03, Revision E.01,
 Gaussian 03:  EM64T-G03RevE.01 11-Sep-2007

 -------------------------------------
 # b3lyp/6-31G(d,p) pop=(ReadRadii,MK)
 -------------------------------------

 ----------
 Ca3PO4_208
 ----------
 Symbolic Z-matrix:
 Charge =  0 Multiplicity = 1

                         Standard orientation:
 ---------------------------------------------------------------------
 Center     Atomic     Atomic              Coordinates (Angstroms)
 Number     Number      Type              X           Y           Z
 ---------------------------------------------------------------------
    1          8             0        0.136644    0.050915   -1.745889
    2          8             0        0.867369   -1.180441   -1.360989
    3          8             0        0.868938    1.257069   -1.290879
    4          8             0       -2.556220    0.011949   -0.381193
    5         15             0        0.264816   -0.062567    2.161041
    6         20             0        2.219090   -0.004882    0.143104
    7         20             0       -0.985382   -1.600571    0.033060
    8         20             0       -0.983973    1.596239    0.124625
    9          1             0       -3.500780    0.006856   -0.199750
 ---------------------------------------------------------------------

 SCF Done:  E(RB+HF-LYP) =  -2675.54051540     A.U. after    9 cycles

 The electronic state is 1-A.
 Alpha  occ. eigenvalues -- -145.34933-145.34717-145.34713 -76.95951 -19.22413
 Alpha  occ. eigenvalues --  -19.13178 -19.13176 -19.08768 -15.42057 -15.41803
 Alpha  occ. eigenvalues --  -15.41799 -12.55240 -12.55222 -12.55127 -12.55031
 Alpha  occ. eigenvalues --  -12.55028 -12.54934 -12.54932 -12.54885 -12.54882
 Alpha  occ. eigenvalues --   -6.43015  -4.59123  -4.59109  -4.58996  -1.79568
 Alpha  occ. eigenvalues --   -1.79314  -1.79221  -1.10015  -1.07576  -1.07307
 Alpha  occ. eigenvalues --   -1.06916  -1.06857  -1.06613  -1.06539  -1.06436
 Alpha  occ. eigenvalues --   -1.06271  -1.04637  -0.90242  -0.89375  -0.73500
 Alpha  occ. eigenvalues --   -0.44539  -0.44169  -0.42723  -0.40957  -0.39914
 Alpha  occ. eigenvalues --   -0.28739  -0.27726  -0.27700  -0.26628  -0.26435
 Alpha  occ. eigenvalues --   -0.20361  -0.14646  -0.14416  -0.13966
 Alpha virt. eigenvalues --   -0.07191  -0.05642  -0.05176  -0.01254  -0.01131
 Alpha virt. eigenvalues --    0.01573   0.01822   0.02059   0.02364   0.03230
 Alpha virt. eigenvalues --    0.05069   0.05190   0.06129   0.07575   0.09026

 Mulliken atomic charges:
              1
     1  O   -0.132137
     2  O   -0.533184
     3  O   -0.533227
     4  O   -0.845361
     5  P   -0.800655
     6  Ca   0.791229
     7  Ca   0.882328
     8  Ca   0.882876
     9  H    0.288132
 Sum of Mulliken charges=   0.00000

 Dipole moment (field-independent basis, Debye):
    X=    -0.9240    Y=     0.1002    Z=    -3.4980  Tot=     3.6194
 Quadrupole moment (field-independent basis, Debye-Ang):
   XX=   -61.8825   YY=   -65.2719   ZZ=  -122.4062
   XY=     0.0268   XZ=    -0.9180   YZ=     1.6512

 Normal termination of Gaussian 03 at Mon May  4 20:11:37 2015.
