 Gaussian 03, Revision E.01,
 Gaussian 03:  EM64T-G03RevE.01 11-Sep-2007

 -------------------------------------
 # b3lyp/6-31G(d,p) pop=(ReadRadii,MK)
 -------------------------------------

 ----------
 Ca3PO4_117
 ----------
 Symbolic Z-matrix:
 Charge =  0 Multiplicity = 1

                         Standard orientation:
 ---------------------------------------------------------------------
 Center     Atomic     Atomic              Coordinates (Angstroms)
 Number     Number      Type              X           Y           Z
 ---------------------------------------------------------------------
    1          8             0       -0.804415    1.172256   -0.998585
    2          8             0       -1.586938    1.162130    0.293588
    3          8             0        1.509236    0.850916    0.181204
    4          8             0       -0.185571   -1.607646    0.632351
    5         15             0        0.733519    1.931218   -0.744389
    6         20             0       -0.040980    0.252094    1.852381
    7         20             0       -1.841637   -0.972809   -0.706233
    8         20             0        1.704865   -1.432899   -0.527132
    9          1             0        1.093737    1.482772   -2.082899
 ---------------------------------------------------------------------

 SCF Done:  E(RB+HF-LYP) =  -2675.62467468     A.U. after   13 cycles

 The electronic state is 1-A.
 Alpha  occ. eigenvalues -- -145.35405-145.35303-145.35262 -77.12993 -19.18605
 Alpha  occ. eigenvalues --  -19.13867 -19.11140 -19.03592 -15.42490 -15.42387
 Alpha  occ. eigenvalues --  -15.42364 -12.55701 -12.55617 -12.55592 -12.55586
 Alpha  occ. eigenvalues --  -12.55558 -12.55538 -12.55505 -12.55491 -12.55440
 Alpha  occ. eigenvalues --   -6.58862  -4.75301  -4.75070  -4.74570  -1.79945
 Alpha  occ. eigenvalues --   -1.79879  -1.79752  -1.08817  -1.07917  -1.07737
 Alpha  occ. eigenvalues --   -1.07655  -1.07543  -1.07260  -1.07087  -1.06802
 Alpha  occ. eigenvalues --   -1.06662  -1.02670  -0.93671  -0.81420  -0.78504
 Alpha  occ. eigenvalues --   -0.56977  -0.43516  -0.43007  -0.39672  -0.37190
 Alpha  occ. eigenvalues --   -0.32666  -0.30567  -0.26585  -0.24580  -0.24010
 Alpha  occ. eigenvalues --   -0.23554  -0.22023  -0.21270  -0.12175
 Alpha virt. eigenvalues --   -0.07911  -0.07599  -0.03160  -0.02656  -0.00769
 Alpha virt. eigenvalues --    0.00155   0.00629   0.01259   0.01353   0.01713
 Alpha virt. eigenvalues --    0.03808   0.04028   0.05747   0.07126   0.07396

 Mulliken atomic charges:
              1
     1  O   -0.475904
     2  O   -0.526273
     3  O   -0.813653
     4  O   -0.910364
     5  P    0.756763
     6  Ca   0.867160
     7  Ca   0.749810
     8  Ca   0.470314
     9  H   -0.117853
 Sum of Mulliken charges=   0.00000

 Dipole moment (field-independent basis, Debye):
    X=    -0.6256    Y=    -1.0587    Z=     2.2486  Tot=     2.5629
 Quadrupole moment (field-independent basis, Debye-Ang):
   XX=   -85.9041   YY=  -104.9884   ZZ=   -83.8009
   XY=     2.2171   XZ=     1.9701   YZ=     4.5697

 Normal termination of Gaussian 03 at Mon May  4 20:09:44 2015.
