 Gaussian 03, Revision E.01,
 Gaussian 03:  EM64T-G03RevE.01 11-Sep-2007

 -------------------------------------
 # b3lyp/6-31G(d,p) pop=(ReadRadii,MK)
 -------------------------------------

 --------
 Ca3PO4_6
 --------
 Symbolic Z-matrix:
 Charge =  0 Multiplicity = 1

                         Standard orientation:
 ---------------------------------------------------------------------
 Center     Atomic     Atomic              Coordinates (Angstroms)
 Number     Number      Type              X           Y           Z
 ---------------------------------------------------------------------
    1          8             0       -1.408830    0.414520    0.887443
    2          8             0        0.471399   -1.170210    0.130966
    3          8             0        0.974636    1.166930    0.613163
    4          8             0       -0.254030   -2.471280    0.298656
    5         15             0        0.074057    0.052853    1.408670
    6         20             0       -1.835239   -1.222801   -0.729333
    7         20             0       -0.858385    2.229599   -0.516527
    8         20             0        2.504890   -0.207706   -0.512116
    9          1             0        4.398430   -0.294320   -1.412400
 ---------------------------------------------------------------------

 SCF Done:  E(RB+HF-LYP) =  -2675.61576343     A.U. after   12 cycles

 The electronic state is 1-A.
 Alpha  occ. eigenvalues -- -145.38672-145.38055-145.37487 -77.16215 -19.19276
 Alpha  occ. eigenvalues --  -19.12615 -19.12381 -19.12374 -15.45789 -15.45178
 Alpha  occ. eigenvalues --  -15.44728 -12.58988 -12.58941 -12.58856 -12.58397
 Alpha  occ. eigenvalues --  -12.58318 -12.58253 -12.57972 -12.57907 -12.57704
 Alpha  occ. eigenvalues --   -6.61560  -4.77993  -4.77847  -4.77280  -1.83123
 Alpha  occ. eigenvalues --   -1.82606  -1.82303  -1.11241  -1.10726  -1.10616
 Alpha  occ. eigenvalues --   -1.10477  -1.10329  -1.10192  -1.10002  -1.09912
 Alpha  occ. eigenvalues --   -1.09329  -1.03000  -0.97274  -0.92633  -0.79854
 Alpha  occ. eigenvalues --   -0.54897  -0.44790  -0.43106  -0.41746  -0.39380
 Alpha  occ. eigenvalues --   -0.36709  -0.33300  -0.31527  -0.29767  -0.25513
 Alpha  occ. eigenvalues --   -0.23186  -0.22484  -0.21614  -0.14391
 Alpha virt. eigenvalues --   -0.09146  -0.05544  -0.03598  -0.02281  -0.01673
 Alpha virt. eigenvalues --   -0.01078  -0.00833   0.00354   0.00990   0.01961
 Alpha virt. eigenvalues --    0.02931   0.04820   0.06047   0.06689   0.07278

 Mulliken atomic charges:
              1
     1  O   -0.811596
     2  O   -0.581429
     3  O   -0.848288
     4  O   -0.484095
     5  P    1.037447
     6  Ca   0.670343
     7  Ca   0.419894
     8  Ca   0.881150
     9  H   -0.283426
 Sum of Mulliken charges=   0.00000

 Dipole moment (field-independent basis, Debye):
    X=    -4.2196    Y=     1.4838    Z=     0.1039  Tot=     4.4741
 Quadrupole moment (field-independent basis, Debye-Ang):
   XX=  -106.9274   YY=   -87.1653   ZZ=  -102.3422
   XY=     7.8943   XZ=     8.5116   YZ=     7.1495

 Normal termination of Gaussian 03 at Mon May  4 20:13:23 2015.
