 Gaussian 03, Revision E.01,
 Gaussian 03:  EM64T-G03RevE.01 11-Sep-2007

 -------------------------------------
 # b3lyp/6-31G(d,p) pop=(ReadRadii,MK)
 -------------------------------------

 ----------
 Ca3PO4_212
 ----------
 Symbolic Z-matrix:
 Charge =  0 Multiplicity = 1

                         Standard orientation:
 ---------------------------------------------------------------------
 Center     Atomic     Atomic              Coordinates (Angstroms)
 Number     Number      Type              X           Y           Z
 ---------------------------------------------------------------------
    1          8             0        2.372081   -1.148620    0.001129
    2          8             0        2.006270    1.379600    0.001047
    3          8             0       -1.063930   -0.279039   -1.379900
    4          8             0       -1.065150   -0.279648    1.379970
    5         15             0        3.036850    0.239138   -0.001415
    6         20             0        0.090869   -1.611001    0.000260
    7         20             0       -2.817480   -0.038328   -0.000743
    8         20             0       -0.324405    1.491138    0.000695
    9          1             0       -2.526601    2.198397   -0.000971
 ---------------------------------------------------------------------

 SCF Done:  E(RB+HF-LYP) =  -2675.74614787     A.U. after    7 cycles

 The electronic state is 1-A.
 Alpha  occ. eigenvalues -- -145.32944-145.31794-145.31436 -77.15097 -19.13263
 Alpha  occ. eigenvalues --  -19.13081 -18.99716 -18.99708 -15.40042 -15.38947
 Alpha  occ. eigenvalues --  -15.38553 -12.53251 -12.53154 -12.53147 -12.52181
 Alpha  occ. eigenvalues --  -12.52060 -12.52016 -12.51726 -12.51713 -12.51664
 Alpha  occ. eigenvalues --   -6.60830  -4.77267  -4.77030  -4.76618  -1.77638
 Alpha  occ. eigenvalues --   -1.76662  -1.76127  -1.06068  -1.05234  -1.05094
 Alpha  occ. eigenvalues --   -1.04818  -1.04022  -1.03893  -1.03738  -1.03471
 Alpha  occ. eigenvalues --   -1.03285  -0.99049  -0.93811  -0.74524  -0.73999
 Alpha  occ. eigenvalues --   -0.52604  -0.42000  -0.38471  -0.38065  -0.30705
 Alpha  occ. eigenvalues --   -0.29364  -0.26335  -0.23655  -0.20665  -0.20509
 Alpha  occ. eigenvalues --   -0.19300  -0.18998  -0.18481  -0.15048
 Alpha virt. eigenvalues --   -0.07064  -0.05041  -0.04865  -0.01568   0.00480
 Alpha virt. eigenvalues --    0.01225   0.02193   0.02965   0.03192   0.04005
 Alpha virt. eigenvalues --    0.05519   0.06213   0.07702   0.08470   0.11175

 Mulliken atomic charges:
              1
     1  O   -0.665357
     2  O   -0.659957
     3  O   -0.902459
     4  O   -0.902651
     5  P    0.738735
     6  Ca   0.833868
     7  Ca   0.906148
     8  Ca   1.054276
     9  H   -0.402601
 Sum of Mulliken charges=   0.00000

 Dipole moment (field-independent basis, Debye):
    X=    -3.6891    Y=    -4.1407    Z=    -0.0025  Tot=     5.5457
 Quadrupole moment (field-independent basis, Debye-Ang):
   XX=   -70.2396   YY=   -69.0250   ZZ=   -99.2385
   XY=    11.3312   XZ=     0.0107   YZ=     0.0158

 Normal termination of Gaussian 03 at Mon May  4 20:11:38 2015.
