 Gaussian 03, Revision E.01,
 Gaussian 03:  EM64T-G03RevE.01 11-Sep-2007

 -------------------------------------
 # b3lyp/6-31G(d,p) pop=(ReadRadii,MK)
 -------------------------------------

 ----------
 Ca3PO4_148
 ----------
 Symbolic Z-matrix:
 Charge =  0 Multiplicity = 1

                         Standard orientation:
 ---------------------------------------------------------------------
 Center     Atomic     Atomic              Coordinates (Angstroms)
 Number     Number      Type              X           Y           Z
 ---------------------------------------------------------------------
    1          8             0       -2.123139   -1.321791   -0.718234
    2          8             0       -2.123809    1.320679   -0.718483
    3          8             0        1.384741    0.000960   -0.371197
    4          8             0       -1.256999   -0.000220    1.227270
    5         15             0       -2.342109   -0.000556    0.058001
    6         20             0        0.025775    1.682589    0.105280
    7         20             0        3.532701    0.000085   -0.053106
    8         20             0        0.027310   -1.682091    0.105252
    9          1             0       -3.630439   -0.000322    0.626664
 ---------------------------------------------------------------------

 SCF Done:  E(RB+HF-LYP) =  -2675.80479836     A.U. after    9 cycles

 The electronic state is 1-A.
 Alpha  occ. eigenvalues -- -145.35622-145.35620-145.35068 -77.16873 -19.09801
 Alpha  occ. eigenvalues --  -19.08885 -19.08884 -19.04491 -15.42738 -15.42736
 Alpha  occ. eigenvalues --  -15.42268 -12.55937 -12.55936 -12.55909 -12.55908
 Alpha  occ. eigenvalues --  -12.55800 -12.55799 -12.55450 -12.55444 -12.55288
 Alpha  occ. eigenvalues --   -6.61845  -4.78224  -4.78115  -4.78075  -1.80282
 Alpha  occ. eigenvalues --   -1.80223  -1.79737  -1.08799  -1.08013  -1.07962
 Alpha  occ. eigenvalues --   -1.07877  -1.07755  -1.07355  -1.07342  -1.07129
 Alpha  occ. eigenvalues --   -1.06725  -0.98250  -0.90826  -0.90346  -0.79604
 Alpha  occ. eigenvalues --   -0.53534  -0.42514  -0.39426  -0.38833  -0.32550
 Alpha  occ. eigenvalues --   -0.30462  -0.28658  -0.27253  -0.27149  -0.25424
 Alpha  occ. eigenvalues --   -0.25249  -0.24495  -0.23359  -0.13426
 Alpha virt. eigenvalues --   -0.07761  -0.07449  -0.03099  -0.02732  -0.00491
 Alpha virt. eigenvalues --   -0.00246   0.00595   0.02315   0.02896   0.03538
 Alpha virt. eigenvalues --    0.04486   0.05900   0.09685   0.09713   0.11590

 Mulliken atomic charges:
              1
     1  O   -0.701917
     2  O   -0.701992
     3  O   -0.942449
     4  O   -0.790579
     5  P    1.139747
     6  Ca   0.968142
     7  Ca   0.164768
     8  Ca   0.967591
     9  H   -0.103311
 Sum of Mulliken charges=   0.00000

 Dipole moment (field-independent basis, Debye):
    X=     2.5307    Y=     0.0090    Z=     1.7277  Tot=     3.0642
 Quadrupole moment (field-independent basis, Debye-Ang):
   XX=  -110.3572   YY=   -69.5106   ZZ=   -96.0593
   XY=     0.0010   XZ=    -7.6769   YZ=     0.0039

 Normal termination of Gaussian 03 at Mon May  4 20:10:15 2015.
