 Gaussian 03, Revision E.01,
 Gaussian 03:  EM64T-G03RevE.01 11-Sep-2007

 -------------------------------------
 # b3lyp/6-31G(d,p) pop=(ReadRadii,MK)
 -------------------------------------

 ----------
 Ca3PO4_122
 ----------
 Symbolic Z-matrix:
 Charge =  0 Multiplicity = 1

                         Standard orientation:
 ---------------------------------------------------------------------
 Center     Atomic     Atomic              Coordinates (Angstroms)
 Number     Number      Type              X           Y           Z
 ---------------------------------------------------------------------
    1          8             0       -1.759283    1.191917   -0.069357
    2          8             0       -1.642601    0.242065    1.064152
    3          8             0        0.637492   -0.349296   -0.829087
    4          8             0       -0.400549    0.471692    1.831282
    5         15             0        2.360319   -0.009694   -0.932646
    6         20             0        0.459139    1.796681    0.156207
    7         20             0        0.441478   -1.637849    1.138292
    8         20             0       -1.539939   -0.747158   -1.413988
    9          1             0        2.701190   -0.539104    0.403575
 ---------------------------------------------------------------------

 SCF Done:  E(RB+HF-LYP) =  -2675.50802669     A.U. after   12 cycles

 The electronic state is 1-A.
 Alpha  occ. eigenvalues -- -145.37522-145.37038-145.36801 -77.06093 -19.24047
 Alpha  occ. eigenvalues --  -19.14921 -19.14898 -19.10283 -15.44561 -15.44109
 Alpha  occ. eigenvalues --  -15.43933 -12.57771 -12.57702 -12.57664 -12.57325
 Alpha  occ. eigenvalues --  -12.57240 -12.57205 -12.57132 -12.57102 -12.56998
 Alpha  occ. eigenvalues --   -6.52632  -4.69077  -4.68761  -4.68277  -1.81837
 Alpha  occ. eigenvalues --   -1.81529  -1.81418  -1.11840  -1.09657  -1.09528
 Alpha  occ. eigenvalues --   -1.09390  -1.09123  -1.08957  -1.08905  -1.08679
 Alpha  occ. eigenvalues --   -1.08540  -1.06430  -0.91154  -0.90310  -0.75050
 Alpha  occ. eigenvalues --   -0.55064  -0.45894  -0.43407  -0.41884  -0.37647
 Alpha  occ. eigenvalues --   -0.33099  -0.32454  -0.29571  -0.28902  -0.28246
 Alpha  occ. eigenvalues --   -0.24726  -0.21734  -0.15986  -0.12829
 Alpha virt. eigenvalues --   -0.08006  -0.07696  -0.03913  -0.02444  -0.01044
 Alpha virt. eigenvalues --    0.00122   0.00465   0.00765   0.01332   0.01617
 Alpha virt. eigenvalues --    0.03019   0.03476   0.05313   0.06424   0.07872

 Mulliken atomic charges:
              1
     1  O   -0.537617
     2  O   -0.113816
     3  O   -0.899396
     4  O   -0.533181
     5  P    0.055905
     6  Ca   0.932968
     7  Ca   0.607214
     8  Ca   0.645496
     9  H   -0.157573
 Sum of Mulliken charges=   0.00000

 Dipole moment (field-independent basis, Debye):
    X=     0.0302    Y=     4.5660    Z=     0.3352  Tot=     4.5784
 Quadrupole moment (field-independent basis, Debye-Ang):
   XX=  -105.8025   YY=   -83.4782   ZZ=   -92.8559
   XY=     2.9045   XZ=    14.4133   YZ=    -5.5529

 Normal termination of Gaussian 03 at Mon May  4 20:09:47 2015.
