 Gaussian 03, Revision E.01,
 Gaussian 03:  EM64T-G03RevE.01 11-Sep-2007

 -------------------------------------
 # b3lyp/6-31G(d,p) pop=(ReadRadii,MK)
 -------------------------------------

 ---------
 Ca3PO4_65
 ---------
 Symbolic Z-matrix:
 Charge =  0 Multiplicity = 1

                         Standard orientation:
 ---------------------------------------------------------------------
 Center     Atomic     Atomic              Coordinates (Angstroms)
 Number     Number      Type              X           Y           Z
 ---------------------------------------------------------------------
    1          8             0       -2.480339   -0.564928   -0.815906
    2          8             0       -1.336908    1.311201    0.486186
    3          8             0        0.072737   -0.210405   -0.791714
    4          8             0        2.796882    0.486129    0.263996
    5         15             0       -1.457678    0.606348   -1.058649
    6         20             0       -1.465329   -1.025679    1.158291
    7         20             0        1.853311   -1.533401   -0.369702
    8         20             0        0.900445    1.667420    0.316120
    9          1             0        3.677652    0.562018    0.645110
 ---------------------------------------------------------------------

 SCF Done:  E(RB+HF-LYP) =  -2675.77444394     A.U. after   10 cycles

 The electronic state is 1-A.
 Alpha  occ. eigenvalues -- -145.36468-145.36129-145.35704 -77.10737 -19.10876
 Alpha  occ. eigenvalues --  -19.08402 -19.07036 -19.05686 -15.43621 -15.43211
 Alpha  occ. eigenvalues --  -15.42846 -12.56863 -12.56793 -12.56634 -12.56412
 Alpha  occ. eigenvalues --  -12.56379 -12.56285 -12.56056 -12.55961 -12.55941
 Alpha  occ. eigenvalues --   -6.56038  -4.72449  -4.72344  -4.71838  -1.81234
 Alpha  occ. eigenvalues --   -1.80601  -1.80274  -1.09355  -1.09186  -1.08706
 Alpha  occ. eigenvalues --   -1.08293  -1.08048  -1.07985  -1.07914  -1.07662
 Alpha  occ. eigenvalues --   -1.07517  -0.93029  -0.92153  -0.86760  -0.85610
 Alpha  occ. eigenvalues --   -0.48829  -0.43969  -0.36745  -0.35310  -0.34856
 Alpha  occ. eigenvalues --   -0.30667  -0.29843  -0.28826  -0.28196  -0.24596
 Alpha  occ. eigenvalues --   -0.23565  -0.22266  -0.19175  -0.12516
 Alpha virt. eigenvalues --   -0.07751  -0.07357  -0.02891  -0.02185  -0.01150
 Alpha virt. eigenvalues --   -0.00065   0.00586   0.02184   0.02457   0.02771
 Alpha virt. eigenvalues --    0.04470   0.06423   0.08768   0.09133   0.09724

 Mulliken atomic charges:
              1
     1  O   -0.739312
     2  O   -0.837854
     3  O   -0.895552
     4  O   -0.831523
     5  P    0.951717
     6  Ca   0.411965
     7  Ca   0.603916
     8  Ca   1.035384
     9  H    0.301259
 Sum of Mulliken charges=   0.00000

 Dipole moment (field-independent basis, Debye):
    X=     5.6024    Y=     3.0316    Z=     2.8411  Tot=     6.9749
 Quadrupole moment (field-independent basis, Debye-Ang):
   XX=   -92.2275   YY=   -81.3466   ZZ=   -92.3829
   XY=    11.2136   XZ=   -13.0282   YZ=     4.1906

 Normal termination of Gaussian 03 at Mon May  4 20:13:05 2015.
