 Gaussian 03, Revision E.01,
 Gaussian 03:  EM64T-G03RevE.01 11-Sep-2007

 -------------------------------------
 # b3lyp/6-31G(d,p) pop=(ReadRadii,MK)
 -------------------------------------

 ---------
 Ca3PO4_84
 ---------
 Symbolic Z-matrix:
 Charge =  0 Multiplicity = 1

                         Standard orientation:
 ---------------------------------------------------------------------
 Center     Atomic     Atomic              Coordinates (Angstroms)
 Number     Number      Type              X           Y           Z
 ---------------------------------------------------------------------
    1          8             0       -1.063958    0.256691   -0.778840
    2          8             0       -1.064258    0.256939    0.778842
    3          8             0        2.276952    0.970751    0.000534
    4          8             0        2.120782   -1.569230   -0.000927
    5         15             0        3.060212   -0.346419   -0.000155
    6         20             0       -3.242348   -0.233252   -0.000261
    7         20             0       -0.169497   -1.750950    0.000544
    8         20             0        0.220912    2.071000   -0.000014
    9          1             0       -0.240665    4.139110    0.000071
 ---------------------------------------------------------------------

 SCF Done:  E(RB+HF-LYP) =  -2675.66918951     A.U. after   11 cycles

 The electronic state is 1-A.
 Alpha  occ. eigenvalues -- -145.38323-145.38078-145.33631 -77.17654 -19.16331
 Alpha  occ. eigenvalues --  -19.16323 -19.15726 -19.15525 -15.45458 -15.45198
 Alpha  occ. eigenvalues --  -15.40896 -12.58658 -12.58596 -12.58554 -12.58387
 Alpha  occ. eigenvalues --  -12.58351 -12.58265 -12.54124 -12.54045 -12.53917
 Alpha  occ. eigenvalues --   -6.63372  -4.79813  -4.79574  -4.79151  -1.82924
 Alpha  occ. eigenvalues --   -1.82505  -1.78589  -1.11612  -1.10607  -1.10522
 Alpha  occ. eigenvalues --   -1.09980  -1.09911  -1.09755  -1.06772  -1.06597
 Alpha  occ. eigenvalues --   -1.06034  -1.01729  -0.99114  -0.96365  -0.80169
 Alpha  occ. eigenvalues --   -0.55302  -0.44783  -0.41004  -0.40692  -0.39999
 Alpha  occ. eigenvalues --   -0.39129  -0.38529  -0.33363  -0.31732  -0.28698
 Alpha  occ. eigenvalues --   -0.27110  -0.26225  -0.19703  -0.14444
 Alpha virt. eigenvalues --   -0.08450  -0.07643  -0.05278  -0.03251  -0.01131
 Alpha virt. eigenvalues --   -0.01045  -0.00390  -0.00309   0.01527   0.02480
 Alpha virt. eigenvalues --    0.02664   0.03063   0.05499   0.06320   0.08609

 Mulliken atomic charges:
              1
     1  O   -0.599215
     2  O   -0.599354
     3  O   -0.655204
     4  O   -0.667808
     5  P    0.727876
     6  Ca   0.548274
     7  Ca   0.652674
     8  Ca   0.891041
     9  H   -0.298284
 Sum of Mulliken charges=   0.00000

 Dipole moment (field-independent basis, Debye):
    X=     0.3625    Y=    -4.5455    Z=     0.0003  Tot=     4.5599
 Quadrupole moment (field-independent basis, Debye-Ang):
   XX=   -95.7160   YY=  -120.4385   ZZ=   -86.6658
   XY=    -4.6987   XZ=     0.0055   YZ=    -0.0083

 Normal termination of Gaussian 03 at Mon May  4 20:13:34 2015.
