 Gaussian 03, Revision E.01,
 Gaussian 03:  EM64T-G03RevE.01 11-Sep-2007

 -------------------------------------
 # b3lyp/6-31G(d,p) pop=(ReadRadii,MK)
 -------------------------------------

 ---------
 Ca3PO4_34
 ---------
 Symbolic Z-matrix:
 Charge =  0 Multiplicity = 1

                         Standard orientation:
 ---------------------------------------------------------------------
 Center     Atomic     Atomic              Coordinates (Angstroms)
 Number     Number      Type              X           Y           Z
 ---------------------------------------------------------------------
    1          8             0        1.469076    0.070007    1.053041
    2          8             0       -0.676741   -1.307993    1.050101
    3          8             0       -0.797017    1.239325    1.049211
    4          8             0        0.001875   -0.000602   -1.632609
    5         15             0       -0.002379    0.000611    1.584751
    6         20             0       -2.002904   -0.095419   -0.650898
    7         20             0        0.920573    1.782368   -0.648244
    8         20             0        1.085477   -1.687752   -0.646912
    9          1             0       -0.004787    0.000988    2.991901
 ---------------------------------------------------------------------

 SCF Done:  E(RB+HF-LYP) =  -2675.80666932     A.U. after    9 cycles

 The electronic state is 1-A.
 Alpha  occ. eigenvalues -- -145.35799-145.35772-145.35705 -77.19745 -19.12224
 Alpha  occ. eigenvalues --  -19.12194 -19.12040 -19.03410 -15.42861 -15.42834
 Alpha  occ. eigenvalues --  -15.42774 -12.56062 -12.56035 -12.56003 -12.55977
 Alpha  occ. eigenvalues --  -12.55974 -12.55965 -12.55938 -12.55916 -12.55877
 Alpha  occ. eigenvalues --   -6.64741  -4.81072  -4.81071  -4.80946  -1.80254
 Alpha  occ. eigenvalues --   -1.80196  -1.80151  -1.08843  -1.08107  -1.08083
 Alpha  occ. eigenvalues --   -1.07837  -1.07730  -1.07657  -1.07629  -1.07098
 Alpha  occ. eigenvalues --   -1.07058  -1.01100  -0.93647  -0.93607  -0.78401
 Alpha  occ. eigenvalues --   -0.56474  -0.45173  -0.42298  -0.42285  -0.34652
 Alpha  occ. eigenvalues --   -0.34648  -0.32078  -0.30230  -0.30201  -0.28138
 Alpha  occ. eigenvalues --   -0.23751  -0.23750  -0.21463  -0.11634
 Alpha virt. eigenvalues --   -0.07650  -0.07631  -0.02142  -0.02127  -0.00249
 Alpha virt. eigenvalues --    0.00394   0.00408   0.01264   0.02399   0.03965
 Alpha virt. eigenvalues --    0.03978   0.06561   0.08588   0.08599   0.10633

 Mulliken atomic charges:
              1
     1  O   -0.755652
     2  O   -0.753279
     3  O   -0.755405
     4  O   -0.912419
     5  P    1.233736
     6  Ca   0.673959
     7  Ca   0.682337
     8  Ca   0.677079
     9  H   -0.090355
 Sum of Mulliken charges=   0.00000

 Dipole moment (field-independent basis, Debye):
    X=     0.1620    Y=     0.1480    Z=     0.1422  Tot=     0.2615
 Quadrupole moment (field-independent basis, Debye-Ang):
   XX=   -88.7156   YY=   -88.2315   ZZ=  -100.9254
   XY=     0.1746   XZ=    -0.1505   YZ=    -0.1581

 Normal termination of Gaussian 03 at Mon May  4 20:12:12 2015.
