 Gaussian 03, Revision E.01,
 Gaussian 03:  EM64T-G03RevE.01 11-Sep-2007

 -------------------------------------
 # b3lyp/6-31G(d,p) pop=(ReadRadii,MK)
 -------------------------------------

 --------
 Ca3PO4_2
 --------
 Symbolic Z-matrix:
 Charge =  0 Multiplicity = 1

                         Standard orientation:
 ---------------------------------------------------------------------
 Center     Atomic     Atomic              Coordinates (Angstroms)
 Number     Number      Type              X           Y           Z
 ---------------------------------------------------------------------
    1          9             0       -0.046116   -0.016724   -0.008448
    2          8             0        1.897765   -0.080752   -0.658482
    3          8             0       -2.367276    0.712089    0.793368
    4          8             0       -1.835544   -0.672225    0.998531
    5          8             0       -2.282668    0.971265   -0.679196
    6         15             0        2.632214    1.353503   -0.016494
    7         20             0        3.738690   -1.213973    0.042240
    8         20             0       -0.101658    0.649367    0.125451
    9         20             0       -3.755351   -0.815146   -0.333207
 ---------------------------------------------------------------------

 SCF Done:  E(RB+HF-LYP) =  -2766.80629810     A.U. after   19 cycles

 The electronic state is 1-A.
 Alpha  occ. eigenvalues -- -145.99658-145.39772-145.38180 -77.05333 -25.53858
 Alpha  occ. eigenvalues --  -19.29014 -19.20414 -19.20237 -19.12574 -16.21797
 Alpha  occ. eigenvalues --  -15.46896 -15.45364 -13.35932 -13.25449 -13.25282
 Alpha  occ. eigenvalues --  -12.60088 -12.60041 -12.59976 -12.58550 -12.58507
 Alpha  occ. eigenvalues --  -12.58436  -6.51951  -4.68423  -4.67960  -4.67688
 Alpha  occ. eigenvalues --   -3.21799  -1.99717  -1.99265  -1.84164  -1.82806
 Alpha  occ. eigenvalues --   -1.71313  -1.26231  -1.16713  -1.11723  -1.11603
 Alpha  occ. eigenvalues --   -1.11442  -1.10347  -1.10234  -1.08791  -0.96115
 Alpha  occ. eigenvalues --   -0.93246  -0.82849  -0.82056  -0.80248  -0.51062
 Alpha  occ. eigenvalues --   -0.49679  -0.49082  -0.47764  -0.37916  -0.36552
 Alpha  occ. eigenvalues --   -0.34026  -0.33914  -0.32365  -0.31187  -0.28874
 Alpha  occ. eigenvalues --   -0.17505  -0.14717  -0.12296
 Alpha virt. eigenvalues --   -0.10901  -0.07940  -0.05462  -0.04581  -0.04031
 Alpha virt. eigenvalues --   -0.03111  -0.02935  -0.02078  -0.01394   0.00064
 Alpha virt. eigenvalues --    0.00845   0.01684   0.03439   0.03999   0.05627

 Mulliken atomic charges:
              1
     1  F   -0.008100
     2  O   -0.864746
     3  O   -0.183330
     4  O   -0.512791
     5  O   -0.450311
     6  P   -0.185386
     7  Ca   0.549934
     8  Ca   1.185547
     9  Ca   0.469182
 Sum of Mulliken charges=   0.00000

 Dipole moment (field-independent basis, Debye):
    X=     0.5876    Y=    -2.8152    Z=    -0.2232  Tot=     2.8845
 Quadrupole moment (field-independent basis, Debye-Ang):
   XX=  -101.2671   YY=  -108.4625   ZZ=  -105.4248
   XY=   -16.3734   XZ=    -4.5762   YZ=     1.0539

 Normal termination of Gaussian 03 at Mon May  4 20:42:20 2015.
