 Gaussian 03, Revision E.01,
 Gaussian 03:  EM64T-G03RevE.01 11-Sep-2007

 -------------------------------------
 # b3lyp/6-31G(d,p) pop=(ReadRadii,MK)
 -------------------------------------

 ---------
 Ca3PO4_99
 ---------
 Symbolic Z-matrix:
 Charge =  0 Multiplicity = 1

                         Standard orientation:
 ---------------------------------------------------------------------
 Center     Atomic     Atomic              Coordinates (Angstroms)
 Number     Number      Type              X           Y           Z
 ---------------------------------------------------------------------
    1          8             0       -0.710616   -1.483141   -0.846070
    2          8             0        1.288230   -1.332582    0.844964
    3          8             0       -0.948671    0.124005    1.039280
    4          8             0        0.849479    0.643107   -0.632460
    5         15             0        0.139812   -0.611977    0.113368
    6         20             0       -2.775950   -0.803026   -0.120464
    7         20             0       -0.780231    2.210739    0.001360
    8         20             0        3.008420   -0.150290   -0.115283
    9          1             0        5.030661    0.420054   -0.258518
 ---------------------------------------------------------------------

 SCF Done:  E(RB+HF-LYP) =  -2675.78876489     A.U. after   10 cycles

 The electronic state is 1-A.
 Alpha  occ. eigenvalues -- -145.39008-145.38988-145.35734 -77.19614 -19.11562
 Alpha  occ. eigenvalues --  -19.11262 -19.09600 -19.09464 -15.46102 -15.46084
 Alpha  occ. eigenvalues --  -15.43011 -12.59311 -12.59293 -12.59251 -12.59229
 Alpha  occ. eigenvalues --  -12.59178 -12.59160 -12.56258 -12.56185 -12.55980
 Alpha  occ. eigenvalues --   -6.64049  -4.80471  -4.80385  -4.80311  -1.83408
 Alpha  occ. eigenvalues --   -1.83378  -1.80659  -1.11487  -1.11002  -1.10983
 Alpha  occ. eigenvalues --   -1.10779  -1.10683  -1.10634  -1.08742  -1.08361
 Alpha  occ. eigenvalues --   -1.07930  -1.00658  -0.92543  -0.91821  -0.91121
 Alpha  occ. eigenvalues --   -0.51017  -0.42493  -0.41852  -0.40973  -0.35358
 Alpha  occ. eigenvalues --   -0.33040  -0.32458  -0.30622  -0.30351  -0.27763
 Alpha  occ. eigenvalues --   -0.26379  -0.25424  -0.21110  -0.14752
 Alpha virt. eigenvalues --   -0.09786  -0.04763  -0.03059  -0.02482  -0.01614
 Alpha virt. eigenvalues --   -0.00886  -0.00354   0.00495   0.01337   0.02554
 Alpha virt. eigenvalues --    0.05622   0.05718   0.08368   0.08902   0.10395

 Mulliken atomic charges:
              1
     1  O   -0.705411
     2  O   -0.704373
     3  O   -0.796962
     4  O   -0.840268
     5  P    1.313269
     6  Ca   0.605766
     7  Ca   0.571479
     8  Ca   0.849377
     9  H   -0.292877
 Sum of Mulliken charges=   0.00000

 Dipole moment (field-independent basis, Debye):
    X=    -4.6832    Y=     1.1970    Z=     0.2461  Tot=     4.8400
 Quadrupole moment (field-independent basis, Debye-Ang):
   XX=  -110.0474   YY=   -85.4727   ZZ=   -93.9593
   XY=     6.0904   XZ=    -0.4186   YZ=     2.9569

 Normal termination of Gaussian 03 at Mon May  4 20:14:00 2015.
