 Gaussian 03, Revision E.01,
 Gaussian 03:  EM64T-G03RevE.01 11-Sep-2007

 -------------------------------------
 # b3lyp/6-31G(d,p) pop=(ReadRadii,MK)
 -------------------------------------

 ---------
 Ca3PO4_51
 ---------
 Symbolic Z-matrix:
 Charge =  0 Multiplicity = 1

                         Standard orientation:
 ---------------------------------------------------------------------
 Center     Atomic     Atomic              Coordinates (Angstroms)
 Number     Number      Type              X           Y           Z
 ---------------------------------------------------------------------
    1          8             0       -1.145501   -0.505879   -0.115510
    2          8             0        1.022999   -1.773220   -0.729881
    3          8             0        1.737449    1.838390   -0.598996
    4          8             0        0.929212   -0.340088    1.448200
    5         15             0       -0.100564   -1.645240    0.341403
    6         20             0        2.545559   -0.111437   -0.394827
    7         20             0       -3.360221    0.053959   -0.328911
    8         20             0       -0.174269    1.637170    0.348315
    9          1             0        0.933819   -0.668860    2.356870
 ---------------------------------------------------------------------

 SCF Done:  E(RB+HF-LYP) =  -2675.72810389     A.U. after   11 cycles

 The electronic state is 1-A.
 Alpha  occ. eigenvalues -- -145.36576-145.34242-145.33118 -77.14504 -19.15255
 Alpha  occ. eigenvalues --  -19.11050 -19.09396 -18.98860 -15.43736 -15.41369
 Alpha  occ. eigenvalues --  -15.40240 -12.56903 -12.56898 -12.56789 -12.54565
 Alpha  occ. eigenvalues --  -12.54562 -12.54404 -12.53453 -12.53412 -12.53289
 Alpha  occ. eigenvalues --   -6.59787  -4.76303  -4.76015  -4.75525  -1.81050
 Alpha  occ. eigenvalues --   -1.78972  -1.77805  -1.08561  -1.08502  -1.08313
 Alpha  occ. eigenvalues --   -1.07206  -1.06744  -1.06172  -1.05667  -1.05590
 Alpha  occ. eigenvalues --   -1.04739  -0.98440  -0.94857  -0.90976  -0.72931
 Alpha  occ. eigenvalues --   -0.53580  -0.47696  -0.40128  -0.39269  -0.35902
 Alpha  occ. eigenvalues --   -0.34519  -0.30362  -0.28549  -0.27043  -0.22206
 Alpha  occ. eigenvalues --   -0.18797  -0.17231  -0.16883  -0.13286
 Alpha virt. eigenvalues --   -0.07237  -0.05990  -0.02845  -0.01666  -0.01218
 Alpha virt. eigenvalues --    0.00181   0.01014   0.01928   0.02887   0.03952
 Alpha virt. eigenvalues --    0.04599   0.05117   0.06040   0.07554   0.09847

 Mulliken atomic charges:
              1
     1  O   -0.810364
     2  O   -0.729140
     3  O   -0.891513
     4  O   -0.770477
     5  P    0.884738
     6  Ca   0.972308
     7  Ca   0.242488
     8  Ca   0.777305
     9  H    0.324654
 Sum of Mulliken charges=   0.00000

 Dipole moment (field-independent basis, Debye):
    X=     4.8787    Y=    -2.2904    Z=     3.0943  Tot=     6.2146
 Quadrupole moment (field-independent basis, Debye-Ang):
   XX=   -77.3402   YY=  -103.6184   ZZ=   -86.0816
   XY=    -6.2048   XZ=     3.1531   YZ=     4.7798

 Normal termination of Gaussian 03 at Mon May  4 20:12:48 2015.
