 Gaussian 03, Revision E.01,
 Gaussian 03:  EM64T-G03RevE.01 11-Sep-2007

 -------------------------------------
 # b3lyp/6-31G(d,p) pop=(ReadRadii,MK)
 -------------------------------------

 ---------
 Ca3PO4_62
 ---------
 Symbolic Z-matrix:
 Charge =  0 Multiplicity = 1

                         Standard orientation:
 ---------------------------------------------------------------------
 Center     Atomic     Atomic              Coordinates (Angstroms)
 Number     Number      Type              X           Y           Z
 ---------------------------------------------------------------------
    1          8             0        0.752093    1.259041    0.901886
    2          8             0        0.713499   -1.281565    0.901474
    3          8             0       -1.467872    0.022331    0.900534
    4          8             0        0.001395    0.000123   -1.777060
    5         15             0       -0.001280   -0.000321    1.719080
    6         20             0       -1.046140   -1.749558   -0.508405
    7         20             0        2.039309   -0.031154   -0.506397
    8         20             0       -0.991974    1.780941   -0.508034
    9          1             0        0.002388    0.000794   -2.744120
 ---------------------------------------------------------------------

 SCF Done:  E(RB+HF-LYP) =  -2675.82029218     A.U. after    9 cycles

 The electronic state is 1-A.
 Alpha  occ. eigenvalues -- -145.35897-145.35860-145.35838 -77.11629 -19.13366
 Alpha  occ. eigenvalues --  -19.07954 -19.07933 -19.07891 -15.43013 -15.42979
 Alpha  occ. eigenvalues --  -15.42956 -12.56185 -12.56173 -12.56150 -12.56138
 Alpha  occ. eigenvalues --  -12.56128 -12.56116 -12.56116 -12.56081 -12.56058
 Alpha  occ. eigenvalues --   -6.56819  -4.73184  -4.73183  -4.72576  -1.80519
 Alpha  occ. eigenvalues --   -1.80467  -1.80440  -1.08977  -1.08320  -1.08307
 Alpha  occ. eigenvalues --   -1.08291  -1.07866  -1.07843  -1.07837  -1.07709
 Alpha  occ. eigenvalues --   -1.07695  -0.94465  -0.93789  -0.87205  -0.87185
 Alpha  occ. eigenvalues --   -0.49696  -0.45877  -0.37570  -0.37563  -0.34787
 Alpha  occ. eigenvalues --   -0.32707  -0.32704  -0.29934  -0.29929  -0.25141
 Alpha  occ. eigenvalues --   -0.25068  -0.25052  -0.19071  -0.11792
 Alpha virt. eigenvalues --   -0.08076  -0.08060  -0.02626  -0.02153  -0.02144
 Alpha virt. eigenvalues --   -0.00074  -0.00068   0.01183   0.03054   0.03834
 Alpha virt. eigenvalues --    0.03841   0.06276   0.08315   0.08321   0.11505

 Mulliken atomic charges:
              1
     1  O   -0.864137
     2  O   -0.865155
     3  O   -0.864652
     4  O   -0.812642
     5  P    1.017005
     6  Ca   0.691113
     7  Ca   0.687557
     8  Ca   0.693258
     9  H    0.317652
 Sum of Mulliken charges=   0.00000

 Dipole moment (field-independent basis, Debye):
    X=    -0.0885    Y=     0.0532    Z=    -3.7000  Tot=     3.7015
 Quadrupole moment (field-independent basis, Debye-Ang):
   XX=   -85.3930   YY=   -85.2154   ZZ=  -105.0171
   XY=    -0.0387   XZ=     0.1172   YZ=    -0.0487

 Normal termination of Gaussian 03 at Mon May  4 20:13:04 2015.
