 Gaussian 03, Revision E.01,
 Gaussian 03:  EM64T-G03RevE.01 11-Sep-2007

 -------------------------------------
 # b3lyp/6-31G(d,p) pop=(ReadRadii,MK)
 -------------------------------------

 ---------
 Ca3PO4_40
 ---------
 Symbolic Z-matrix:
 Charge =  0 Multiplicity = 1

                         Standard orientation:
 ---------------------------------------------------------------------
 Center     Atomic     Atomic              Coordinates (Angstroms)
 Number     Number      Type              X           Y           Z
 ---------------------------------------------------------------------
    1          8             0        2.432819   -0.923670    0.916807
    2          8             0        1.367469    0.418660   -0.932676
    3          8             0       -2.068091    1.661028    0.183518
    4          8             0       -1.481200   -1.986092   -0.084676
    5         15             0        2.654379    0.421977    0.124463
    6         20             0       -0.001085    2.028779   -0.096432
    7         20             0       -2.822191   -0.346532    0.168145
    8         20             0        0.632588   -1.744551   -0.251067
    9          1             0        1.990099    1.557009    1.056350
 ---------------------------------------------------------------------

 SCF Done:  E(RB+HF-LYP) =  -2675.71749171     A.U. after    9 cycles

 The electronic state is 1-A.
 Alpha  occ. eigenvalues -- -145.33546-145.30893-145.30448 -77.10628 -19.08896
 Alpha  occ. eigenvalues --  -19.07185 -18.99720 -18.99260 -15.40739 -15.38150
 Alpha  occ. eigenvalues --  -15.37708 -12.53975 -12.53914 -12.53741 -12.51383
 Alpha  occ. eigenvalues --  -12.51335 -12.51126 -12.50938 -12.50893 -12.50672
 Alpha  occ. eigenvalues --   -6.56311  -4.72670  -4.72598  -4.72069  -1.78421
 Alpha  occ. eigenvalues --   -1.75971  -1.75556  -1.06515  -1.06225  -1.05553
 Alpha  occ. eigenvalues --   -1.04197  -1.03813  -1.03680  -1.03560  -1.03175
 Alpha  occ. eigenvalues --   -1.02335  -0.92969  -0.87783  -0.73811  -0.72916
 Alpha  occ. eigenvalues --   -0.51389  -0.38543  -0.36166  -0.33782  -0.27963
 Alpha  occ. eigenvalues --   -0.26445  -0.24732  -0.20363  -0.18632  -0.18519
 Alpha  occ. eigenvalues --   -0.18042  -0.17794  -0.17177  -0.17085
 Alpha virt. eigenvalues --   -0.06460  -0.05049  -0.03357  -0.00020   0.00741
 Alpha virt. eigenvalues --    0.01137   0.02294   0.03001   0.03410   0.03736
 Alpha virt. eigenvalues --    0.04816   0.05858   0.07227   0.08560   0.10049

 Mulliken atomic charges:
              1
     1  O   -0.731395
     2  O   -0.849464
     3  O   -0.917098
     4  O   -0.928317
     5  P    0.769904
     6  Ca   1.012563
     7  Ca   0.949837
     8  Ca   0.991122
     9  H   -0.297152
 Sum of Mulliken charges=   0.00000

 Dipole moment (field-independent basis, Debye):
    X=    -4.0267    Y=     1.2660    Z=    -2.0933  Tot=     4.7116
 Quadrupole moment (field-independent basis, Debye-Ang):
   XX=   -83.4751   YY=   -72.8849   ZZ=   -82.6273
   XY=     3.0170   XZ=    -6.3529   YZ=     1.0016

 Normal termination of Gaussian 03 at Mon May  4 20:12:24 2015.
