 Gaussian 03, Revision E.01,
 Gaussian 03:  EM64T-G03RevE.01 11-Sep-2007

 -------------------------------------
 # b3lyp/6-31G(d,p) pop=(ReadRadii,MK)
 -------------------------------------

 --------
 Ca3PO4_3
 --------
 Symbolic Z-matrix:
 Charge =  0 Multiplicity = 1

                         Standard orientation:
 ---------------------------------------------------------------------
 Center     Atomic     Atomic              Coordinates (Angstroms)
 Number     Number      Type              X           Y           Z
 ---------------------------------------------------------------------
    1          8             0       -2.628259   -0.133363   -0.090567
    2          8             0       -0.139453    0.184002    0.482765
    3          8             0       -0.976095   -2.161820   -0.139020
    4          8             0        2.828101   -0.224749   -0.355446
    5         15             0       -1.530299   -0.962253    0.740372
    6         20             0       -1.489578    1.689900   -0.543110
    7         20             0        1.194961   -1.641181   -0.402857
    8         20             0        1.793892    1.454489    0.449894
    9          1             0        0.294629    3.057079   -0.365972
 ---------------------------------------------------------------------

 SCF Done:  E(RB+HF-LYP) =  -2675.74230401     A.U. after   10 cycles

 The electronic state is 1-A.
 Alpha  occ. eigenvalues -- -145.36826-145.33409-145.31051 -77.09686 -19.07667
 Alpha  occ. eigenvalues --  -19.05573 -19.05131 -18.98583 -15.44018 -15.40565
 Alpha  occ. eigenvalues --  -15.38310 -12.57260 -12.57173 -12.57030 -12.53793
 Alpha  occ. eigenvalues --  -12.53726 -12.53594 -12.51555 -12.51499 -12.51269
 Alpha  occ. eigenvalues --   -6.54824  -4.71293  -4.71096  -4.70636  -1.81653
 Alpha  occ. eigenvalues --   -1.78205  -1.76139  -1.09650  -1.09450  -1.08671
 Alpha  occ. eigenvalues --   -1.06214  -1.05955  -1.05189  -1.04314  -1.04062
 Alpha  occ. eigenvalues --   -1.03076  -0.91623  -0.85714  -0.85124  -0.72477
 Alpha  occ. eigenvalues --   -0.47208  -0.36316  -0.34587  -0.32739  -0.29998
 Alpha  occ. eigenvalues --   -0.27254  -0.25968  -0.23909  -0.23131  -0.22441
 Alpha  occ. eigenvalues --   -0.18148  -0.16839  -0.16660  -0.15392
 Alpha virt. eigenvalues --   -0.07043  -0.05548  -0.03749  -0.02365   0.00202
 Alpha virt. eigenvalues --    0.00923   0.02118   0.02548   0.03568   0.03635
 Alpha virt. eigenvalues --    0.05196   0.05590   0.07313   0.10138   0.10539

 Mulliken atomic charges:
              1
     1  O   -0.752912
     2  O   -0.930251
     3  O   -0.740539
     4  O   -0.894971
     5  P    0.882203
     6  Ca   0.930337
     7  Ca   0.905834
     8  Ca   1.008643
     9  H   -0.408344
 Sum of Mulliken charges=   0.00000

 Dipole moment (field-independent basis, Debye):
    X=     1.2725    Y=     6.2828    Z=    -0.7428  Tot=     6.4533
 Quadrupole moment (field-independent basis, Debye-Ang):
   XX=  -103.2794   YY=   -68.6115   ZZ=   -76.8920
   XY=   -17.9049   XZ=    12.7951   YZ=     4.7307

 Normal termination of Gaussian 03 at Mon May  4 20:12:27 2015.
