 Gaussian 03, Revision E.01,
 Gaussian 03:  EM64T-G03RevE.01 11-Sep-2007

 -------------------------------------
 # b3lyp/6-31G(d,p) pop=(ReadRadii,MK)
 -------------------------------------

 ----------
 Ca3PO4_179
 ----------
 Symbolic Z-matrix:
 Charge =  0 Multiplicity = 1

                         Standard orientation:
 ---------------------------------------------------------------------
 Center     Atomic     Atomic              Coordinates (Angstroms)
 Number     Number      Type              X           Y           Z
 ---------------------------------------------------------------------
    1          8             0        0.662522   -2.046609    0.584916
    2          8             0        1.687070    0.821535    0.295975
    3          8             0       -0.579302   -1.365999   -0.012295
    4          8             0       -0.876760    1.546590    0.356209
    5         15             0        0.796018    1.904011   -0.600264
    6         20             0        0.206208   -0.133179    1.793589
    7         20             0        1.290010   -0.852404   -1.268491
    8         20             0       -2.391490   -0.144859   -0.599128
    9          1             0       -1.183081    2.404540    0.686112
 ---------------------------------------------------------------------

 SCF Done:  E(RB+HF-LYP) =  -2675.60096394     A.U. after   13 cycles

 The electronic state is 1-A.
 Alpha  occ. eigenvalues -- -145.36290-145.36214-145.36033 -77.09020 -19.16836
 Alpha  occ. eigenvalues --  -19.12770 -19.12094 -19.09755 -15.43380 -15.43305
 Alpha  occ. eigenvalues --  -15.43102 -12.56568 -12.56514 -12.56507 -12.56486
 Alpha  occ. eigenvalues --  -12.56458 -12.56401 -12.56291 -12.56250 -12.56223
 Alpha  occ. eigenvalues --   -6.55101  -4.71729  -4.71240  -4.70625  -1.80812
 Alpha  occ. eigenvalues --   -1.80654  -1.80568  -1.09831  -1.08683  -1.08491
 Alpha  occ. eigenvalues --   -1.08359  -1.08145  -1.08047  -1.07942  -1.07882
 Alpha  occ. eigenvalues --   -1.07742  -0.98861  -0.95941  -0.91066  -0.76259
 Alpha  occ. eigenvalues --   -0.54015  -0.47251  -0.38825  -0.37761  -0.36655
 Alpha  occ. eigenvalues --   -0.34866  -0.34191  -0.31382  -0.30429  -0.27633
 Alpha  occ. eigenvalues --   -0.22688  -0.21259  -0.14446  -0.11743
 Alpha virt. eigenvalues --   -0.08106  -0.07925  -0.02824  -0.02521  -0.01681
 Alpha virt. eigenvalues --   -0.00273   0.00400   0.01028   0.01524   0.02738
 Alpha virt. eigenvalues --    0.03458   0.03915   0.04972   0.07332   0.07926

 Mulliken atomic charges:
              1
     1  O   -0.546965
     2  O   -0.820694
     3  O   -0.630276
     4  O   -0.735696
     5  P    0.259168
     6  Ca   0.956152
     7  Ca   0.939996
     8  Ca   0.234301
     9  H    0.344013
 Sum of Mulliken charges=   0.00000

 Dipole moment (field-independent basis, Debye):
    X=     3.8942    Y=    -1.6560    Z=     0.3079  Tot=     4.2428
 Quadrupole moment (field-independent basis, Debye-Ang):
   XX=   -96.6142   YY=  -103.2573   ZZ=   -79.5662
   XY=   -10.7272   XZ=    -4.8143   YZ=     7.6288

 Normal termination of Gaussian 03 at Mon May  4 20:11:18 2015.
