 Gaussian 03, Revision E.01,
 Gaussian 03:  EM64T-G03RevE.01 11-Sep-2007

 -------------------------------------
 # b3lyp/6-31G(d,p) pop=(ReadRadii,MK)
 -------------------------------------

 --------
 Ca3PO4_5
 --------
 Symbolic Z-matrix:
 Charge =  0 Multiplicity = 1

                         Standard orientation:
 ---------------------------------------------------------------------
 Center     Atomic     Atomic              Coordinates (Angstroms)
 Number     Number      Type              X           Y           Z
 ---------------------------------------------------------------------
    1          8             0        1.466410   -0.149360    1.177570
    2          8             0       -1.337070    0.739782    0.200023
    3          8             0        1.358681   -1.610559   -0.893730
    4          8             0        2.246410    0.870984   -1.009330
    5         15             0        2.313250   -0.522613   -0.228232
    6         20             0        0.617677    1.786501    0.256536
    7         20             0       -0.412407   -1.374410    0.503563
    8         20             0       -3.298590    0.136482   -0.386890
    9          1             0       -2.707789   -1.939060    0.163051
 ---------------------------------------------------------------------

 SCF Done:  E(RB+HF-LYP) =  -2675.74068146     A.U. after   13 cycles

 The electronic state is 1-A.
 Alpha  occ. eigenvalues -- -145.38948-145.32332-145.31447 -77.08978 -19.05566
 Alpha  occ. eigenvalues --  -19.04481 -19.04251 -19.03989 -15.46073 -15.39496
 Alpha  occ. eigenvalues --  -15.38615 -12.59294 -12.59200 -12.59141 -12.52698
 Alpha  occ. eigenvalues --  -12.52660 -12.52540 -12.51833 -12.51758 -12.51678
 Alpha  occ. eigenvalues --   -6.54144  -4.70506  -4.70420  -4.70146  -1.83509
 Alpha  occ. eigenvalues --   -1.77161  -1.76289  -1.11348  -1.10809  -1.10541
 Alpha  occ. eigenvalues --   -1.05483  -1.04869  -1.04536  -1.04219  -1.03759
 Alpha  occ. eigenvalues --   -1.03631  -0.91172  -0.84607  -0.84145  -0.78838
 Alpha  occ. eigenvalues --   -0.45107  -0.34053  -0.33399  -0.32088  -0.28069
 Alpha  occ. eigenvalues --   -0.26485  -0.25426  -0.23875  -0.23495  -0.22625
 Alpha  occ. eigenvalues --   -0.21916  -0.21744  -0.20011  -0.12772
 Alpha virt. eigenvalues --   -0.10770  -0.06045  -0.03878  -0.02781  -0.01567
 Alpha virt. eigenvalues --   -0.00027   0.01168   0.02461   0.02790   0.04683
 Alpha virt. eigenvalues --    0.05572   0.06092   0.06864   0.10193   0.10956

 Mulliken atomic charges:
              1
     1  O   -0.809914
     2  O   -0.946612
     3  O   -0.714554
     4  O   -0.709629
     5  P    1.052107
     6  Ca   1.033323
     7  Ca   0.745882
     8  Ca   0.759055
     9  H   -0.409657
 Sum of Mulliken charges=   0.00000

 Dipole moment (field-independent basis, Debye):
    X=    -6.9064    Y=     4.1001    Z=     3.2391  Tot=     8.6603
 Quadrupole moment (field-independent basis, Debye-Ang):
   XX=   -89.4293   YY=   -73.7126   ZZ=   -88.5158
   XY=     2.7786   XZ=     7.6735   YZ=    -1.7018

 Normal termination of Gaussian 03 at Mon May  4 20:13:07 2015.
