 Gaussian 03, Revision E.01,
 Gaussian 03:  EM64T-G03RevE.01 11-Sep-2007

 -------------------------------------
 # b3lyp/6-31G(d,p) pop=(ReadRadii,MK)
 -------------------------------------

 ---------
 Ca3PO4_23
 ---------
 Symbolic Z-matrix:
 Charge =  0 Multiplicity = 1

                         Standard orientation:
 ---------------------------------------------------------------------
 Center     Atomic     Atomic              Coordinates (Angstroms)
 Number     Number      Type              X           Y           Z
 ---------------------------------------------------------------------
    1          8             0        0.226783   -0.691913    1.107790
    2          8             0        2.779611    0.847215    0.435467
    3          8             0        2.291171    0.760621   -1.046350
    4          8             0       -1.316559    0.493644   -0.587376
    5         15             0       -0.816788   -1.099421   -0.124958
    6         20             0        0.606727    1.486409    0.241220
    7         20             0        2.125340   -1.262142   -0.091000
    8         20             0       -3.446349   -0.008311   -0.038838
    9          1             0       -5.310589    0.895677    0.370518
 ---------------------------------------------------------------------

 SCF Done:  E(RB+HF-LYP) =  -2675.61040016     A.U. after    9 cycles

 The electronic state is 1-A.
 Alpha  occ. eigenvalues -- -145.35545-145.34654-145.33540 -77.07909 -19.09050
 Alpha  occ. eigenvalues --  -19.07862 -19.07788 -19.07757 -15.42852 -15.41736
 Alpha  occ. eigenvalues --  -15.40661 -12.56092 -12.56020 -12.55822 -12.54941
 Alpha  occ. eigenvalues --  -12.54886 -12.54832 -12.53881 -12.53828 -12.53713
 Alpha  occ. eigenvalues --   -6.53922  -4.70398  -4.70068  -4.69698  -1.80530
 Alpha  occ. eigenvalues --   -1.79239  -1.78301  -1.08577  -1.08229  -1.07976
 Alpha  occ. eigenvalues --   -1.07428  -1.06915  -1.06708  -1.06113  -1.05835
 Alpha  occ. eigenvalues --   -1.05536  -0.91198  -0.90522  -0.86846  -0.71563
 Alpha  occ. eigenvalues --   -0.49586  -0.35613  -0.34319  -0.33521  -0.31402
 Alpha  occ. eigenvalues --   -0.29911  -0.28913  -0.27299  -0.25533  -0.24310
 Alpha  occ. eigenvalues --   -0.21200  -0.18262  -0.16967  -0.12470
 Alpha virt. eigenvalues --   -0.07200  -0.06113  -0.03465  -0.01266  -0.00606
 Alpha virt. eigenvalues --   -0.00234   0.01157   0.01630   0.04029   0.04306
 Alpha virt. eigenvalues --    0.04642   0.05687   0.06983   0.07625   0.08797

 Mulliken atomic charges:
              1
     1  O   -0.802907
     2  O   -0.586271
     3  O   -0.583219
     4  O   -0.863082
     5  P    0.267458
     6  Ca   1.111345
     7  Ca   1.025945
     8  Ca   0.728536
     9  H   -0.297805
 Sum of Mulliken charges=   0.00000

 Dipole moment (field-independent basis, Debye):
    X=     2.3639    Y=    -0.9526    Z=     0.9955  Tot=     2.7361
 Quadrupole moment (field-independent basis, Debye-Ang):
   XX=  -114.6653   YY=   -67.7299   ZZ=   -88.2198
   XY=    -8.3666   XZ=     7.9534   YZ=     4.9934

 Normal termination of Gaussian 03 at Mon May  4 20:11:57 2015.
