 Gaussian 03, Revision E.01,
 Gaussian 03:  EM64T-G03RevE.01 11-Sep-2007

 -------------------------------------
 # b3lyp/6-31G(d,p) pop=(ReadRadii,MK)
 -------------------------------------

 ----------
 Ca3PO4_189
 ----------
 Symbolic Z-matrix:
 Charge =  0 Multiplicity = 1

                         Standard orientation:
 ---------------------------------------------------------------------
 Center     Atomic     Atomic              Coordinates (Angstroms)
 Number     Number      Type              X           Y           Z
 ---------------------------------------------------------------------
    1          8             0        1.541600    1.152430    0.527668
    2          8             0       -0.055845   -1.395800    0.609872
    3          8             0       -0.424909    1.227019   -1.034930
    4          8             0       -2.724719    0.082605    0.496410
    5         15             0        1.141590    1.467900   -0.992898
    6         20             0       -0.675344    0.614498    1.389510
    7         20             0        2.086911   -1.217590    0.178373
    8         20             0       -1.424879   -0.953135   -1.083910
    9          1             0       -3.546619    0.575999    0.421831
 ---------------------------------------------------------------------

 SCF Done:  E(RB+HF-LYP) =  -2675.76587425     A.U. after   13 cycles

 The electronic state is 1-A.
 Alpha  occ. eigenvalues -- -145.34171-145.33855-145.33233 -77.12412 -19.10912
 Alpha  occ. eigenvalues --  -19.10785 -19.07667 -19.01351 -15.41254 -15.40987
 Alpha  occ. eigenvalues --  -15.40319 -12.54435 -12.54406 -12.54368 -12.54200
 Alpha  occ. eigenvalues --  -12.54134 -12.54046 -12.53529 -12.53466 -12.53408
 Alpha  occ. eigenvalues --   -6.58212  -4.74501  -4.74480  -4.74054  -1.78751
 Alpha  occ. eigenvalues --   -1.78450  -1.77879  -1.07273  -1.06428  -1.06272
 Alpha  occ. eigenvalues --   -1.06182  -1.06106  -1.05604  -1.05496  -1.05098
 Alpha  occ. eigenvalues --   -1.05036  -0.96225  -0.90825  -0.89126  -0.76531
 Alpha  occ. eigenvalues --   -0.51117  -0.40900  -0.39024  -0.37302  -0.36379
 Alpha  occ. eigenvalues --   -0.29750  -0.27309  -0.27143  -0.26301  -0.24389
 Alpha  occ. eigenvalues --   -0.22084  -0.21802  -0.19978  -0.11089
 Alpha virt. eigenvalues --   -0.07270  -0.06344  -0.05926  -0.01343  -0.00251
 Alpha virt. eigenvalues --    0.00768   0.00989   0.01301   0.02408   0.02838
 Alpha virt. eigenvalues --    0.04616   0.05198   0.07204   0.08640   0.09480

 Mulliken atomic charges:
              1
     1  O   -0.748418
     2  O   -0.938839
     3  O   -0.732139
     4  O   -0.839446
     5  P    0.621632
     6  Ca   0.854994
     7  Ca   0.512102
     8  Ca   0.988963
     9  H    0.281151
 Sum of Mulliken charges=   0.00000

 Dipole moment (field-independent basis, Debye):
    X=    -3.2967    Y=     0.5260    Z=     1.7844  Tot=     3.7854
 Quadrupole moment (field-independent basis, Debye-Ang):
   XX=   -86.9713   YY=   -93.7902   ZZ=   -80.6139
   XY=    -2.3049   XZ=     8.3037   YZ=    10.1337

 Normal termination of Gaussian 03 at Mon May  4 20:11:24 2015.
