 Gaussian 03, Revision E.01,
 Gaussian 03:  EM64T-G03RevE.01 11-Sep-2007

 -------------------------------------
 # b3lyp/6-31G(d,p) pop=(ReadRadii,MK)
 -------------------------------------

 ----------
 Ca3PO4_131
 ----------
 Symbolic Z-matrix:
 Charge =  0 Multiplicity = 1

                         Standard orientation:
 ---------------------------------------------------------------------
 Center     Atomic     Atomic              Coordinates (Angstroms)
 Number     Number      Type              X           Y           Z
 ---------------------------------------------------------------------
    1          8             0       -2.475319    0.932732   -0.593682
    2          8             0       -1.744119   -1.487539   -0.145488
    3          8             0        1.536181    0.756680    0.671637
    4          8             0        0.849926    0.301360   -0.642907
    5         15             0       -2.810669   -0.566873   -0.756392
    6         20             0       -0.593763    1.675741    0.506813
    7         20             0        3.169381   -0.145677   -0.752973
    8         20             0        0.308670   -1.320549    0.986864
    9          1             0       -0.859071    0.286924    2.215330
 ---------------------------------------------------------------------

 SCF Done:  E(RB+HF-LYP) =  -2675.65520416     A.U. after   11 cycles

 The electronic state is 1-A.
 Alpha  occ. eigenvalues -- -145.37256-145.36171-145.35069 -77.15568 -19.13950
 Alpha  occ. eigenvalues --  -19.13836 -19.13732 -19.13366 -15.44345 -15.43225
 Alpha  occ. eigenvalues --  -15.42221 -12.57576 -12.57483 -12.57427 -12.56403
 Alpha  occ. eigenvalues --  -12.56386 -12.56351 -12.55410 -12.55372 -12.55280
 Alpha  occ. eigenvalues --   -6.61266  -4.77700  -4.77471  -4.77053  -1.81825
 Alpha  occ. eigenvalues --   -1.80582  -1.79580  -1.10618  -1.09518  -1.09117
 Alpha  occ. eigenvalues --   -1.08321  -1.08100  -1.07902  -1.07135  -1.07014
 Alpha  occ. eigenvalues --   -1.07009  -0.99625  -0.97396  -0.94302  -0.77662
 Alpha  occ. eigenvalues --   -0.53097  -0.42548  -0.39107  -0.38538  -0.37476
 Alpha  occ. eigenvalues --   -0.37025  -0.36220  -0.31121  -0.29851  -0.26826
 Alpha  occ. eigenvalues --   -0.25399  -0.23882  -0.22642  -0.12141
 Alpha virt. eigenvalues --   -0.07474  -0.06245  -0.05471  -0.02953  -0.02027
 Alpha virt. eigenvalues --    0.00197   0.00614   0.01358   0.01597   0.03075
 Alpha virt. eigenvalues --    0.03744   0.04663   0.05769   0.06012   0.08848

 Mulliken atomic charges:
              1
     1  O   -0.677893
     2  O   -0.651016
     3  O   -0.583706
     4  O   -0.602375
     5  P    0.749568
     6  Ca   1.066644
     7  Ca   0.213463
     8  Ca   0.890080
     9  H   -0.404765
 Sum of Mulliken charges=   0.00000

 Dipole moment (field-independent basis, Debye):
    X=    -1.7620    Y=     5.0837    Z=     1.3017  Tot=     5.5356
 Quadrupole moment (field-independent basis, Debye-Ang):
   XX=  -113.1157   YY=   -74.1061   ZZ=   -95.8946
   XY=     2.3950   XZ=    -0.0373   YZ=    -2.3004

 Normal termination of Gaussian 03 at Mon May  4 20:10:03 2015.
