 Gaussian 03, Revision E.01,
 Gaussian 03:  EM64T-G03RevE.01 11-Sep-2007

 -------------------------------------
 # b3lyp/6-31G(d,p) pop=(ReadRadii,MK)
 -------------------------------------

 ----------
 Ca3PO4_109
 ----------
 Symbolic Z-matrix:
 Charge =  0 Multiplicity = 1

                         Standard orientation:
 ---------------------------------------------------------------------
 Center     Atomic     Atomic              Coordinates (Angstroms)
 Number     Number      Type              X           Y           Z
 ---------------------------------------------------------------------
    1          8             0       -0.771601   -1.011311   -0.010064
    2          8             0       -2.410709    1.528579    0.005790
    3          8             0        1.344011   -0.154877   -1.213599
    4          8             0        1.340461   -0.175708    1.214361
    5         15             0        0.788425   -1.184791   -0.008137
    6         20             0       -0.289658    1.373909   -0.002130
    7         20             0        3.234871    0.085709    0.006030
    8         20             0       -3.101869   -0.547638    0.003405
    9          1             0       -4.710519   -1.961220    0.004089
 ---------------------------------------------------------------------

 SCF Done:  E(RB+HF-LYP) =  -2675.68742954     A.U. after   14 cycles

 The electronic state is 1-A.
 Alpha  occ. eigenvalues -- -145.43583-145.33046-145.29220 -77.14958 -19.10900
 Alpha  occ. eigenvalues --  -19.10625 -19.10616 -18.99354 -15.50617 -15.40179
 Alpha  occ. eigenvalues --  -15.36513 -12.63842 -12.63748 -12.63715 -12.53388
 Alpha  occ. eigenvalues --  -12.53383 -12.53196 -12.49766 -12.49677 -12.49484
 Alpha  occ. eigenvalues --   -6.60235  -4.76566  -4.76558  -4.76171  -1.87874
 Alpha  occ. eigenvalues --   -1.77855  -1.74242  -1.15650  -1.15358  -1.15064
 Alpha  occ. eigenvalues --   -1.06281  -1.05593  -1.05041  -1.02454  -1.02099
 Alpha  occ. eigenvalues --   -1.01052  -0.97083  -0.91131  -0.88933  -0.73080
 Alpha  occ. eigenvalues --   -0.51958  -0.40553  -0.39008  -0.38654  -0.32913
 Alpha  occ. eigenvalues --   -0.31249  -0.29182  -0.27424  -0.24971  -0.21384
 Alpha  occ. eigenvalues --   -0.19166  -0.17092  -0.16994  -0.16023
 Alpha virt. eigenvalues --   -0.13840  -0.07517  -0.04268  -0.04264  -0.00802
 Alpha virt. eigenvalues --    0.01300   0.01482   0.02742   0.03135   0.04119
 Alpha virt. eigenvalues --    0.05231   0.05483   0.07185   0.08279   0.08357

 Mulliken atomic charges:
              1
     1  O   -0.746061
     2  O   -0.871294
     3  O   -0.797393
     4  O   -0.796207
     5  P    0.957839
     6  Ca   0.788546
     7  Ca   0.875280
     8  Ca   0.885641
     9  H   -0.296350
 Sum of Mulliken charges=   0.00000

 Dipole moment (field-independent basis, Debye):
    X=    17.1698    Y=     5.2666    Z=     0.0139  Tot=    17.9593
 Quadrupole moment (field-independent basis, Debye-Ang):
   XX=   -85.4175   YY=   -93.4287   ZZ=   -89.0131
   XY=    -2.1758   XZ=     0.1771   YZ=    -0.0003

 Normal termination of Gaussian 03 at Mon May  4 20:09:40 2015.
