 Gaussian 03, Revision E.01,
 Gaussian 03:  EM64T-G03RevE.01 11-Sep-2007

 -------------------------------------
 # b3lyp/6-31G(d,p) pop=(ReadRadii,MK)
 -------------------------------------

 --------
 Ca3PO4_7
 --------
 Symbolic Z-matrix:
 Charge =  0 Multiplicity = 1

                         Standard orientation:
 ---------------------------------------------------------------------
 Center     Atomic     Atomic              Coordinates (Angstroms)
 Number     Number      Type              X           Y           Z
 ---------------------------------------------------------------------
    1          8             0       -1.242131    0.833175    0.584788
    2          8             0        0.858350   -0.591471    0.183732
    3          8             0       -1.535311   -1.626880    0.220409
    4          8             0        1.890989    0.201678    0.982710
    5         15             0       -0.725166   -0.656329    1.144220
    6         20             0        3.037769   -0.789686   -0.750629
    7         20             0        0.705975    1.839001   -0.078765
    8         20             0       -2.962521   -0.108578   -0.717394
    9          1             0       -4.522161    0.498180   -2.000650
 ---------------------------------------------------------------------

 SCF Done:  E(RB+HF-LYP) =  -2675.61624347     A.U. after   11 cycles

 The electronic state is 1-A.
 Alpha  occ. eigenvalues -- -145.39094-145.38766-145.35417 -77.14794 -19.19130
 Alpha  occ. eigenvalues --  -19.15517 -19.11805 -19.10083 -15.46201 -15.45879
 Alpha  occ. eigenvalues --  -15.42730 -12.59391 -12.59363 -12.59268 -12.59094
 Alpha  occ. eigenvalues --  -12.59008 -12.58970 -12.55976 -12.55904 -12.55687
 Alpha  occ. eigenvalues --   -6.60108  -4.76577  -4.76369  -4.75825  -1.83463
 Alpha  occ. eigenvalues --   -1.83307  -1.80458  -1.12296  -1.10997  -1.10940
 Alpha  occ. eigenvalues --   -1.10898  -1.10718  -1.10521  -1.08576  -1.08186
 Alpha  occ. eigenvalues --   -1.07654  -1.02746  -0.95874  -0.90768  -0.81721
 Alpha  occ. eigenvalues --   -0.53830  -0.44078  -0.41912  -0.41012  -0.37942
 Alpha  occ. eigenvalues --   -0.35903  -0.33353  -0.29406  -0.28206  -0.27261
 Alpha  occ. eigenvalues --   -0.25549  -0.22574  -0.20740  -0.14625
 Alpha virt. eigenvalues --   -0.09837  -0.05252  -0.04297  -0.02354  -0.01969
 Alpha virt. eigenvalues --   -0.00877  -0.00287   0.00031   0.01155   0.01670
 Alpha virt. eigenvalues --    0.02464   0.03799   0.05858   0.06394   0.07530

 Mulliken atomic charges:
              1
     1  O   -0.878890
     2  O   -0.533735
     3  O   -0.735325
     4  O   -0.520669
     5  P    0.975524
     6  Ca   0.559421
     7  Ca   0.604234
     8  Ca   0.819278
     9  H   -0.289837
 Sum of Mulliken charges=   0.00000

 Dipole moment (field-independent basis, Debye):
    X=     3.4767    Y=     1.5628    Z=     0.8297  Tot=     3.9010
 Quadrupole moment (field-independent basis, Debye-Ang):
   XX=  -105.9498   YY=   -84.4996   ZZ=  -104.3857
   XY=    -1.9847   XZ=   -10.6630   YZ=     7.3131

 Normal termination of Gaussian 03 at Mon May  4 20:13:31 2015.
