 Gaussian 03, Revision E.01,
 Gaussian 03:  EM64T-G03RevE.01 11-Sep-2007

 -------------------------------------
 # b3lyp/6-31G(d,p) pop=(ReadRadii,MK)
 -------------------------------------

 ---------
 Ca3PO4_22
 ---------
 Symbolic Z-matrix:
 Charge =  0 Multiplicity = 1

                         Standard orientation:
 ---------------------------------------------------------------------
 Center     Atomic     Atomic              Coordinates (Angstroms)
 Number     Number      Type              X           Y           Z
 ---------------------------------------------------------------------
    1          8             0       -1.089965    1.287576    0.712213
    2          8             0        0.630298   -0.014017   -1.345981
    3          8             0        2.127600   -0.005776   -0.980623
    4          8             0       -1.080464   -1.272804    0.743271
    5         15             0       -0.870321    0.019807    1.737569
    6         20             0        1.135278   -1.669145    0.216763
    7         20             0        1.126073    1.677075    0.183822
    8         20             0       -1.685490   -0.018022   -1.218271
    9          1             0       -3.162169   -0.055109   -2.740831
 ---------------------------------------------------------------------

 SCF Done:  E(RB+HF-LYP) =  -2675.63352414     A.U. after   10 cycles

 The electronic state is 1-A.
 Alpha  occ. eigenvalues -- -145.37876-145.37852-145.33025 -77.11990 -19.13200
 Alpha  occ. eigenvalues --  -19.13154 -19.11086 -19.11079 -15.44933 -15.44909
 Alpha  occ. eigenvalues --  -15.40230 -12.58167 -12.58144 -12.58078 -12.58055
 Alpha  occ. eigenvalues --  -12.58012 -12.57989 -12.53448 -12.53427 -12.53234
 Alpha  occ. eigenvalues --   -6.57821  -4.74162  -4.73988  -4.73685  -1.82372
 Alpha  occ. eigenvalues --   -1.82303  -1.77884  -1.11163  -1.10163  -1.09973
 Alpha  occ. eigenvalues --   -1.09899  -1.09811  -1.09348  -1.05851  -1.05828
 Alpha  occ. eigenvalues --   -1.05091  -0.96618  -0.95143  -0.90487  -0.77004
 Alpha  occ. eigenvalues --   -0.52079  -0.39167  -0.38669  -0.37656  -0.36580
 Alpha  occ. eigenvalues --   -0.35632  -0.33604  -0.30479  -0.27962  -0.26368
 Alpha  occ. eigenvalues --   -0.23378  -0.21946  -0.19009  -0.13796
 Alpha virt. eigenvalues --   -0.08939  -0.08910  -0.03883  -0.01822  -0.00493
 Alpha virt. eigenvalues --   -0.00049   0.00820   0.01631   0.01733   0.02280
 Alpha virt. eigenvalues --    0.02982   0.04469   0.07168   0.07204   0.08060

 Mulliken atomic charges:
              1
     1  O   -0.806756
     2  O   -0.644223
     3  O   -0.535899
     4  O   -0.806474
     5  P    0.514637
     6  Ca   0.908392
     7  Ca   0.902864
     8  Ca   0.760764
     9  H   -0.293306
 Sum of Mulliken charges=   0.00000

 Dipole moment (field-independent basis, Debye):
    X=     6.7070    Y=     0.0650    Z=     2.6382  Tot=     7.2075
 Quadrupole moment (field-independent basis, Debye-Ang):
   XX=  -108.0244   YY=   -61.5975   ZZ=  -111.3282
   XY=    -0.3598   XZ=    -6.8191   YZ=    -0.6942

 Normal termination of Gaussian 03 at Mon May  4 20:12:04 2015.
