 Gaussian 03, Revision E.01,
 Gaussian 03:  EM64T-G03RevE.01 11-Sep-2007

 -------------------------------------
 # b3lyp/6-31G(d,p) pop=(ReadRadii,MK)
 -------------------------------------

 ---------
 Ca3PO4_67
 ---------
 Symbolic Z-matrix:
 Charge =  0 Multiplicity = 1

                         Standard orientation:
 ---------------------------------------------------------------------
 Center     Atomic     Atomic              Coordinates (Angstroms)
 Number     Number      Type              X           Y           Z
 ---------------------------------------------------------------------
    1          8             0        1.976009   -1.596501   -0.021645
    2          8             0        2.438971    0.915683   -0.254239
    3          8             0       -0.837454    0.570885    0.801875
    4          8             0       -2.323611   -1.674757   -0.524563
    5         15             0        3.029440   -0.500432   -0.277223
    6         20             0        0.465972    2.147330    0.051435
    7         20             0       -0.291465   -1.523339    0.432922
    8         20             0       -2.807139    0.581120   -0.225016
    9          1             0       -2.820292   -2.318217   -1.039890
 ---------------------------------------------------------------------

 SCF Done:  E(RB+HF-LYP) =  -2675.79324967     A.U. after   10 cycles

 The electronic state is 1-A.
 Alpha  occ. eigenvalues -- -145.34030-145.33319-145.33055 -77.15996 -19.14066
 Alpha  occ. eigenvalues --  -19.13900 -19.09273 -19.02532 -15.41190 -15.40526
 Alpha  occ. eigenvalues --  -15.40235 -12.54410 -12.54309 -12.54263 -12.53764
 Alpha  occ. eigenvalues --  -12.53642 -12.53579 -12.53449 -12.53337 -12.53322
 Alpha  occ. eigenvalues --   -6.61704  -4.78146  -4.77908  -4.77486  -1.78690
 Alpha  occ. eigenvalues --   -1.78248  -1.77773  -1.06583  -1.06431  -1.06387
 Alpha  occ. eigenvalues --   -1.06226  -1.06066  -1.05588  -1.05524  -1.05055
 Alpha  occ. eigenvalues --   -1.04879  -0.99946  -0.94734  -0.90455  -0.77756
 Alpha  occ. eigenvalues --   -0.53586  -0.43156  -0.42133  -0.39099  -0.38956
 Alpha  occ. eigenvalues --   -0.31692  -0.30197  -0.28800  -0.27012  -0.26938
 Alpha  occ. eigenvalues --   -0.23568  -0.23156  -0.21878  -0.11345
 Alpha virt. eigenvalues --   -0.06374  -0.06015  -0.05191  -0.02244  -0.00883
 Alpha virt. eigenvalues --    0.00277   0.00287   0.00723   0.01429   0.03141
 Alpha virt. eigenvalues --    0.03726   0.04354   0.06853   0.09675   0.10667

 Mulliken atomic charges:
              1
     1  O   -0.667124
     2  O   -0.647592
     3  O   -0.937902
     4  O   -0.834606
     5  P    0.716997
     6  Ca   0.497719
     7  Ca   0.900016
     8  Ca   0.680785
     9  H    0.291708
 Sum of Mulliken charges=   0.00000

 Dipole moment (field-independent basis, Debye):
    X=     0.2298    Y=    -3.6970    Z=     1.6951  Tot=     4.0736
 Quadrupole moment (field-independent basis, Debye-Ang):
   XX=   -95.9180   YY=   -87.6525   ZZ=   -90.4359
   XY=    10.5928   XZ=     0.5042   YZ=     0.8890

 Normal termination of Gaussian 03 at Thu May  7 23:18:48 2015.
