 Gaussian 03, Revision E.01,
 Gaussian 03:  EM64T-G03RevE.01 11-Sep-2007

 -------------------------------------
 # b3lyp/6-31G(d,p) pop=(ReadRadii,MK)
 -------------------------------------

 ---------
 Ca3PO4_95
 ---------
 Symbolic Z-matrix:
 Charge =  0 Multiplicity = 1

                         Standard orientation:
 ---------------------------------------------------------------------
 Center     Atomic     Atomic              Coordinates (Angstroms)
 Number     Number      Type              X           Y           Z
 ---------------------------------------------------------------------
    1          8             0       -1.726089    0.005891    0.640490
    2          8             0        0.461795    1.281130    1.075190
    3          8             0        0.454405   -1.281840    1.077510
    4          8             0        0.215854   -0.004100   -1.715280
    5         15             0       -0.391254    0.002264    1.692820
    6         20             0       -0.873710   -1.647514   -0.724572
    7         20             0       -0.863195    1.650726   -0.727522
    8         20             0        2.059021   -0.004343   -0.222073
    9          1             0        4.178761   -0.020002   -0.532236
 ---------------------------------------------------------------------

 SCF Done:  E(RB+HF-LYP) =  -2675.79706537     A.U. after    9 cycles

 The electronic state is 1-A.
 Alpha  occ. eigenvalues -- -145.36017-145.36001-145.29405 -77.12148 -19.08624
 Alpha  occ. eigenvalues --  -19.08100 -19.08097 -19.02980 -15.43094 -15.43078
 Alpha  occ. eigenvalues --  -15.36629 -12.56271 -12.56257 -12.56255 -12.56241
 Alpha  occ. eigenvalues --  -12.56187 -12.56172 -12.49863 -12.49796 -12.49640
 Alpha  occ. eigenvalues --   -6.57278  -4.73640  -4.73616  -4.73104  -1.80712
 Alpha  occ. eigenvalues --   -1.80638  -1.74342  -1.09152  -1.08497  -1.08401
 Alpha  occ. eigenvalues --   -1.08142  -1.08032  -1.07546  -1.02465  -1.02100
 Alpha  occ. eigenvalues --   -1.01470  -0.93788  -0.87491  -0.87376  -0.77627
 Alpha  occ. eigenvalues --   -0.49654  -0.37672  -0.37488  -0.35267  -0.30466
 Alpha  occ. eigenvalues --   -0.30103  -0.25586  -0.25357  -0.24915  -0.23014
 Alpha  occ. eigenvalues --   -0.22767  -0.21481  -0.18187  -0.16726
 Alpha virt. eigenvalues --   -0.09124  -0.07999  -0.02516  -0.00975  -0.00249
 Alpha virt. eigenvalues --    0.00267   0.02794   0.03406   0.03723   0.04084
 Alpha virt. eigenvalues --    0.04547   0.07328   0.08807   0.08894   0.10975

 Mulliken atomic charges:
              1
     1  O   -0.852351
     2  O   -0.843029
     3  O   -0.842589
     4  O   -0.931440
     5  P    1.037310
     6  Ca   0.973753
     7  Ca   0.972110
     8  Ca   0.788719
     9  H   -0.302483
 Sum of Mulliken charges=   0.00000

 Dipole moment (field-independent basis, Debye):
    X=   -10.9552    Y=     0.0562    Z=    -5.7508  Tot=    12.3730
 Quadrupole moment (field-independent basis, Debye-Ang):
   XX=  -111.8740   YY=   -50.6418   ZZ=   -97.0641
   XY=     0.3252   XZ=    15.1064   YZ=    -0.1127

 Normal termination of Gaussian 03 at Mon May  4 20:13:58 2015.
