 Gaussian 03, Revision E.01,
 Gaussian 03:  EM64T-G03RevE.01 11-Sep-2007

 -------------------------------------
 # b3lyp/6-31G(d,p) pop=(ReadRadii,MK)
 -------------------------------------

 ----------
 Ca3PO4_174
 ----------
 Symbolic Z-matrix:
 Charge =  0 Multiplicity = 1

                         Standard orientation:
 ---------------------------------------------------------------------
 Center     Atomic     Atomic              Coordinates (Angstroms)
 Number     Number      Type              X           Y           Z
 ---------------------------------------------------------------------
    1          8             0       -3.947390   -0.877377    0.165870
    2          8             0        2.279690    0.324321    0.908703
    3          8             0        0.281371   -0.330231   -0.501303
    4          8             0       -3.969480    0.401179   -0.659078
    5         15             0        0.831788   -0.490816    1.266650
    6         20             0        1.213910    1.941729   -0.289620
    7         20             0       -1.879120   -0.069180    0.229828
    8         20             0        2.405420   -1.316401   -0.783474
    9          1             0       -4.434580    0.096152   -1.448010
 ---------------------------------------------------------------------

 SCF Done:  E(RB+HF-LYP) =  -2675.55588474     A.U. after   12 cycles

 The electronic state is 1-A.
 Alpha  occ. eigenvalues -- -145.38751-145.37570-145.35270 -77.08216 -19.18212
 Alpha  occ. eigenvalues --  -19.10590 -19.10349 -19.08974 -15.45812 -15.44665
 Alpha  occ. eigenvalues --  -15.42479 -12.59006 -12.58961 -12.58917 -12.57868
 Alpha  occ. eigenvalues --  -12.57818 -12.57737 -12.55701 -12.55677 -12.55480
 Alpha  occ. eigenvalues --   -6.54467  -4.71001  -4.70608  -4.70100  -1.83079
 Alpha  occ. eigenvalues --   -1.82011  -1.80126  -1.10831  -1.10627  -1.10398
 Alpha  occ. eigenvalues --   -1.09673  -1.09435  -1.09290  -1.08726  -1.08031
 Alpha  occ. eigenvalues --   -1.07790  -1.01915  -0.91302  -0.87121  -0.79330
 Alpha  occ. eigenvalues --   -0.51176  -0.48060  -0.38008  -0.35822  -0.35521
 Alpha  occ. eigenvalues --   -0.34886  -0.34277  -0.29468  -0.27358  -0.25263
 Alpha  occ. eigenvalues --   -0.23243  -0.20346  -0.14623  -0.13842
 Alpha virt. eigenvalues --   -0.09816  -0.05977  -0.03980  -0.02282  -0.01694
 Alpha virt. eigenvalues --   -0.01100  -0.00013   0.00537   0.01451   0.02144
 Alpha virt. eigenvalues --    0.02406   0.04995   0.05597   0.06953   0.08075

 Mulliken atomic charges:
              1
     1  O   -0.515903
     2  O   -0.808095
     3  O   -0.880748
     4  O   -0.441303
     5  P    0.185675
     6  Ca   0.429207
     7  Ca   1.034056
     8  Ca   0.652266
     9  H    0.344845
 Sum of Mulliken charges=   0.00000

 Dipole moment (field-independent basis, Debye):
    X=     2.6555    Y=     0.2937    Z=    -3.0969  Tot=     4.0901
 Quadrupole moment (field-independent basis, Debye-Ang):
   XX=  -105.4812   YY=   -86.4578   ZZ=   -95.1292
   XY=    -7.8624   XZ=     0.5534   YZ=     4.2407

 Normal termination of Gaussian 03 at Mon May  4 20:11:01 2015.
