 Gaussian 03, Revision E.01,
 Gaussian 03:  EM64T-G03RevE.01 11-Sep-2007

 -------------------------------------
 # b3lyp/6-31G(d,p) pop=(ReadRadii,MK)
 -------------------------------------

 --------
 Ca3PO4_1
 --------
 Symbolic Z-matrix:
 Charge =  0 Multiplicity = 1

                         Standard orientation:
 ---------------------------------------------------------------------
 Center     Atomic     Atomic              Coordinates (Angstroms)
 Number     Number      Type              X           Y           Z
 ---------------------------------------------------------------------
    1          8             0       -2.926299    0.679739   -0.387428
    2          8             0        0.831326    1.051010   -0.315442
    3          8             0       -1.523350   -1.444109   -0.236083
    4          8             0        2.761780   -1.347761    0.251342
    5         15             0       -2.865940   -0.837743   -0.663285
    6         20             0       -1.043189    1.601131    0.605834
    7         20             0        2.930861    0.559931   -0.666237
    8         20             0        0.633073   -1.120540    0.718153
    9          1             0       -0.573472    0.244661    2.295180
 ---------------------------------------------------------------------

 SCF Done:  E(RB+HF-LYP) =  -2675.72758397     A.U. after    9 cycles

 The electronic state is 1-A.
 Alpha  occ. eigenvalues -- -145.33486-145.32266-145.28509 -77.14608 -19.12704
 Alpha  occ. eigenvalues --  -19.12609 -19.00962 -18.97617 -15.40665 -15.39404
 Alpha  occ. eigenvalues --  -15.35696 -12.53896 -12.53791 -12.53720 -12.52623
 Alpha  occ. eigenvalues --  -12.52554 -12.52439 -12.48896 -12.48880 -12.48732
 Alpha  occ. eigenvalues --   -6.60362  -4.76798  -4.76559  -4.76151  -1.78323
 Alpha  occ. eigenvalues --   -1.77054  -1.73417  -1.06513  -1.05830  -1.05561
 Alpha  occ. eigenvalues --   -1.05029  -1.04692  -1.04008  -1.01495  -1.01119
 Alpha  occ. eigenvalues --   -1.00734  -0.98496  -0.93289  -0.75662  -0.71332
 Alpha  occ. eigenvalues --   -0.52042  -0.41348  -0.38086  -0.37608  -0.30140
 Alpha  occ. eigenvalues --   -0.28893  -0.26169  -0.22945  -0.21735  -0.20630
 Alpha  occ. eigenvalues --   -0.19285  -0.16868  -0.15244  -0.15225
 Alpha virt. eigenvalues --   -0.07389  -0.05390  -0.04650  -0.00427  -0.00210
 Alpha virt. eigenvalues --    0.01106   0.01748   0.02044   0.02896   0.04163
 Alpha virt. eigenvalues --    0.05526   0.06312   0.06536   0.08463   0.10061

 Mulliken atomic charges:
              1
     1  O   -0.673008
     2  O   -0.960921
     3  O   -0.650527
     4  O   -0.878627
     5  P    0.744038
     6  Ca   0.944656
     7  Ca   0.974691
     8  Ca   0.898361
     9  H   -0.398663
 Sum of Mulliken charges=   0.00000

 Dipole moment (field-independent basis, Debye):
    X=     1.5510    Y=     7.3886    Z=    -1.8339  Tot=     7.7692
 Quadrupole moment (field-independent basis, Debye-Ang):
   XX=   -81.3820   YY=   -71.9345   ZZ=   -84.8682
   XY=    13.6364   XZ=   -13.2581   YZ=     0.5811

 Normal termination of Gaussian 03 at Thu May  7 23:18:46 2015.
