 Gaussian 03, Revision E.01,
 Gaussian 03:  EM64T-G03RevE.01 11-Sep-2007

 -------------------------------------
 # b3lyp/6-31G(d,p) pop=(ReadRadii,MK)
 -------------------------------------

 ----------
 Ca3PO4_196
 ----------
 Symbolic Z-matrix:
 Charge =  0 Multiplicity = 1

                         Standard orientation:
 ---------------------------------------------------------------------
 Center     Atomic     Atomic              Coordinates (Angstroms)
 Number     Number      Type              X           Y           Z
 ---------------------------------------------------------------------
    1          8             0        1.258881    0.308172    0.922315
    2          8             0        0.009649   -1.348421   -0.533346
    3          8             0       -1.255289    0.294664    0.925071
    4          8             0        0.013980   -1.749361    1.990961
    5         15             0        0.006593   -0.620786    0.832823
    6         20             0       -2.298049   -0.393232   -1.162699
    7         20             0        2.290571   -0.380547   -1.171939
    8         20             0       -0.008874    2.305289    0.244149
    9          1             0        0.010398   -1.358851    2.877471
 ---------------------------------------------------------------------

 SCF Done:  E(RB+HF-LYP) =  -2675.73880219     A.U. after    9 cycles

 The electronic state is 1-A.
 Alpha  occ. eigenvalues -- -145.40318-145.38300-145.38294 -77.24258 -19.19834
 Alpha  occ. eigenvalues --  -19.14396 -19.14386 -19.14085 -15.47368 -15.45389
 Alpha  occ. eigenvalues --  -15.45385 -12.60569 -12.60507 -12.60470 -12.58574
 Alpha  occ. eigenvalues --  -12.58571 -12.58541 -12.58536 -12.58475 -12.58470
 Alpha  occ. eigenvalues --   -6.68813  -4.85231  -4.85101  -4.85094  -1.84545
 Alpha  occ. eigenvalues --   -1.82594  -1.82592  -1.12397  -1.11960  -1.11815
 Alpha  occ. eigenvalues --   -1.10427  -1.10077  -1.10069  -1.09989  -1.09941
 Alpha  occ. eigenvalues --   -1.09841  -1.07901  -1.01649  -0.96194  -0.96126
 Alpha  occ. eigenvalues --   -0.61215  -0.51085  -0.46012  -0.46006  -0.42286
 Alpha  occ. eigenvalues --   -0.38099  -0.37175  -0.36882  -0.36291  -0.31357
 Alpha  occ. eigenvalues --   -0.31275  -0.30661  -0.15621  -0.11723
 Alpha virt. eigenvalues --   -0.09452  -0.05055  -0.03692  -0.02244  -0.01947
 Alpha virt. eigenvalues --   -0.01239  -0.00868   0.00525   0.01854   0.02279
 Alpha virt. eigenvalues --    0.04255   0.07406   0.08011   0.09015   0.09223

 Mulliken atomic charges:
              1
     1  O   -0.743660
     2  O   -0.743676
     3  O   -0.743903
     4  O   -0.523480
     5  P    1.323668
     6  Ca   0.378751
     7  Ca   0.383634
     8  Ca   0.322052
     9  H    0.346614
 Sum of Mulliken charges=   0.00000

 Dipole moment (field-independent basis, Debye):
    X=     0.0315    Y=     0.9182    Z=     3.8133  Tot=     3.9224
 Quadrupole moment (field-independent basis, Debye-Ang):
   XX=  -112.9133   YY=   -93.7007   ZZ=   -97.3132
   XY=    -0.1018   XZ=    -0.0926   YZ=     6.9957

 Normal termination of Gaussian 03 at Mon May  4 20:11:26 2015.
