 Gaussian 03, Revision E.01,
 Gaussian 03:  EM64T-G03RevE.01 11-Sep-2007

 -------------------------------------
 # b3lyp/6-31G(d,p) pop=(ReadRadii,MK)
 -------------------------------------

 ----------
 Ca3PO4_170
 ----------
 Symbolic Z-matrix:
 Charge =  0 Multiplicity = 1

                         Standard orientation:
 ---------------------------------------------------------------------
 Center     Atomic     Atomic              Coordinates (Angstroms)
 Number     Number      Type              X           Y           Z
 ---------------------------------------------------------------------
    1          8             0        2.438333    0.217154    1.003119
    2          8             0        2.742763    0.137166   -0.535135
    3          8             0       -0.367394   -0.058384   -0.333817
    4          8             0       -2.461419   -1.120955    0.784771
    5         15             0       -1.403799   -1.389416   -0.647931
    6         20             0       -2.355246    1.255815    0.070838
    7         20             0        1.170734    1.724311   -0.126121
    8         20             0        1.400031   -1.535179    0.093443
    9          1             0       -2.071659   -1.457535    1.604209
 ---------------------------------------------------------------------

 SCF Done:  E(RB+HF-LYP) =  -2675.59791591     A.U. after   10 cycles

 The electronic state is 1-A.
 Alpha  occ. eigenvalues -- -145.36804-145.35848-145.34487 -77.09667 -19.16141
 Alpha  occ. eigenvalues --  -19.11131 -19.09572 -19.09298 -15.43922 -15.42984
 Alpha  occ. eigenvalues --  -15.41612 -12.57110 -12.57073 -12.57000 -12.56187
 Alpha  occ. eigenvalues --  -12.56164 -12.56037 -12.54805 -12.54792 -12.54674
 Alpha  occ. eigenvalues --   -6.55798  -4.72367  -4.71996  -4.71324  -1.81234
 Alpha  occ. eigenvalues --   -1.80581  -1.79110  -1.09010  -1.08782  -1.08744
 Alpha  occ. eigenvalues --   -1.08579  -1.08334  -1.08195  -1.06811  -1.06730
 Alpha  occ. eigenvalues --   -1.06383  -0.99607  -0.91892  -0.91472  -0.73321
 Alpha  occ. eigenvalues --   -0.56844  -0.46616  -0.38762  -0.36866  -0.34129
 Alpha  occ. eigenvalues --   -0.33017  -0.31424  -0.30570  -0.29183  -0.28073
 Alpha  occ. eigenvalues --   -0.20117  -0.18461  -0.16278  -0.12969
 Alpha virt. eigenvalues --   -0.07433  -0.06296  -0.03617  -0.02386  -0.01092
 Alpha virt. eigenvalues --   -0.00096   0.00677   0.01627   0.01951   0.03457
 Alpha virt. eigenvalues --    0.04272   0.05089   0.05595   0.07298   0.08001

 Mulliken atomic charges:
              1
     1  O   -0.585518
     2  O   -0.595059
     3  O   -0.883524
     4  O   -0.671435
     5  P    0.230588
     6  Ca   0.349363
     7  Ca   0.755912
     8  Ca   1.076400
     9  H    0.323274
 Sum of Mulliken charges=   0.00000

 Dipole moment (field-independent basis, Debye):
    X=     0.4405    Y=    -3.7984    Z=     1.0807  Tot=     3.9737
 Quadrupole moment (field-independent basis, Debye-Ang):
   XX=  -102.6223   YY=   -84.2047   ZZ=   -89.3235
   XY=    -6.1399   XZ=    -5.8075   YZ=    -6.3593

 Normal termination of Gaussian 03 at Mon May  4 20:10:56 2015.
