 Gaussian 03, Revision E.01,
 Gaussian 03:  EM64T-G03RevE.01 11-Sep-2007

 -------------------------------------
 # b3lyp/6-31G(d,p) pop=(ReadRadii,MK)
 -------------------------------------

 ---------
 Ca3PO4_88
 ---------
 Symbolic Z-matrix:
 Charge =  0 Multiplicity = 1

                         Standard orientation:
 ---------------------------------------------------------------------
 Center     Atomic     Atomic              Coordinates (Angstroms)
 Number     Number      Type              X           Y           Z
 ---------------------------------------------------------------------
    1          8             0        0.908489    0.158926   -0.780025
    2          8             0        0.910215    0.159544    0.781103
    3          8             0       -2.173360   -1.441449   -0.000865
    4          8             0       -2.174449    1.128561    0.004123
    5         15             0       -3.019420   -0.148961   -0.003257
    6         20             0       -0.035253    2.124770    0.000364
    7         20             0        0.093485   -1.826540    0.002180
    8         20             0        3.106910   -0.067500   -0.001793
    9          1             0        2.221290   -2.424830   -0.000845
 ---------------------------------------------------------------------

 SCF Done:  E(RB+HF-LYP) =  -2675.66687404     A.U. after   12 cycles

 The electronic state is 1-A.
 Alpha  occ. eigenvalues -- -145.36201-145.36173-145.35841 -77.16851 -19.15043
 Alpha  occ. eigenvalues --  -19.14884 -19.14876 -19.14706 -15.43395 -15.43277
 Alpha  occ. eigenvalues --  -15.42964 -12.56621 -12.56542 -12.56462 -12.56444
 Alpha  occ. eigenvalues --  -12.56436 -12.56366 -12.56161 -12.56103 -12.56064
 Alpha  occ. eigenvalues --   -6.62547  -4.78987  -4.78751  -4.78332  -1.81044
 Alpha  occ. eigenvalues --   -1.80576  -1.80354  -1.10458  -1.08970  -1.08346
 Alpha  occ. eigenvalues --   -1.08221  -1.08154  -1.08005  -1.07841  -1.07811
 Alpha  occ. eigenvalues --   -1.07689  -1.00848  -0.97773  -0.95640  -0.79120
 Alpha  occ. eigenvalues --   -0.54536  -0.44044  -0.40142  -0.39812  -0.38904
 Alpha  occ. eigenvalues --   -0.37865  -0.37209  -0.32601  -0.31094  -0.27754
 Alpha  occ. eigenvalues --   -0.26067  -0.25223  -0.24409  -0.11037
 Alpha virt. eigenvalues --   -0.07178  -0.06855  -0.05234  -0.04324  -0.01015
 Alpha virt. eigenvalues --   -0.00786  -0.00133   0.01050   0.02208   0.02921
 Alpha virt. eigenvalues --    0.03256   0.03359   0.03727   0.06299   0.09140

 Mulliken atomic charges:
              1
     1  O   -0.599589
     2  O   -0.599380
     3  O   -0.677258
     4  O   -0.642022
     5  P    0.719927
     6  Ca   0.636125
     7  Ca   1.037833
     8  Ca   0.520340
     9  H   -0.395976
 Sum of Mulliken charges=   0.00000

 Dipole moment (field-independent basis, Debye):
    X=    -3.1712    Y=    -4.4382    Z=     0.0119  Tot=     5.4547
 Quadrupole moment (field-independent basis, Debye-Ang):
   XX=  -111.0362   YY=   -95.7624   ZZ=   -87.6902
   XY=    -5.4069   XZ=     0.0126   YZ=    -0.0238

 Normal termination of Gaussian 03 at Mon May  4 20:13:41 2015.
