 Gaussian 03, Revision E.01,
 Gaussian 03:  EM64T-G03RevE.01 11-Sep-2007

 -------------------------------------
 # b3lyp/6-31G(d,p) pop=(ReadRadii,MK)
 -------------------------------------

 ----------
 Ca3PO4_167
 ----------
 Symbolic Z-matrix:
 Charge =  0 Multiplicity = 1

                         Standard orientation:
 ---------------------------------------------------------------------
 Center     Atomic     Atomic              Coordinates (Angstroms)
 Number     Number      Type              X           Y           Z
 ---------------------------------------------------------------------
    1          8             0       -0.370604   -1.309690    0.647329
    2          8             0        2.256761    0.018047   -1.484711
    3          8             0       -0.382253    1.292120    0.667403
    4          8             0       -3.877939    0.015237   -1.226551
    5         15             0        0.129987   -0.013582    1.671069
    6         20             0        1.623410    1.666272   -0.285583
    7         20             0        1.639733   -1.652398   -0.307951
    8         20             0       -2.178429   -0.012072   -0.011815
    9          1             0       -4.651819    0.041980   -1.786811
 ---------------------------------------------------------------------

 SCF Done:  E(RB+HF-LYP) =  -2675.70646807     A.U. after   11 cycles

 The electronic state is 1-A.
 Alpha  occ. eigenvalues -- -145.33750-145.33745-145.31228 -77.07127 -19.07900
 Alpha  occ. eigenvalues --  -19.07890 -19.03305 -18.99718 -15.40889 -15.40884
 Alpha  occ. eigenvalues --  -15.38492 -12.54108 -12.54103 -12.54065 -12.54060
 Alpha  occ. eigenvalues --  -12.53917 -12.53912 -12.51745 -12.51664 -12.51474
 Alpha  occ. eigenvalues --   -6.53160  -4.69612  -4.69334  -4.68873  -1.78531
 Alpha  occ. eigenvalues --   -1.78465  -1.76282  -1.06723  -1.06365  -1.06288
 Alpha  occ. eigenvalues --   -1.06139  -1.05884  -1.05162  -1.04449  -1.04044
 Alpha  occ. eigenvalues --   -1.04002  -0.89968  -0.85979  -0.84258  -0.73625
 Alpha  occ. eigenvalues --   -0.49305  -0.37019  -0.34760  -0.33526  -0.32057
 Alpha  occ. eigenvalues --   -0.28205  -0.24208  -0.23933  -0.20941  -0.20842
 Alpha  occ. eigenvalues --   -0.19370  -0.18157  -0.17690  -0.11974
 Alpha virt. eigenvalues --   -0.07469  -0.06665  -0.02263  -0.00521  -0.00407
 Alpha virt. eigenvalues --    0.01030   0.01533   0.02320   0.03197   0.03868
 Alpha virt. eigenvalues --    0.03999   0.05713   0.07613   0.08244   0.11358

 Mulliken atomic charges:
              1
     1  O   -0.862416
     2  O   -0.886784
     3  O   -0.862109
     4  O   -0.826386
     5  P    0.288165
     6  Ca   0.911926
     7  Ca   0.910614
     8  Ca   1.059871
     9  H    0.267120
 Sum of Mulliken charges=   0.00000

 Dipole moment (field-independent basis, Debye):
    X=     3.4159    Y=    -0.0107    Z=     0.0243  Tot=     3.4161
 Quadrupole moment (field-independent basis, Debye-Ang):
   XX=   -90.8582   YY=   -56.1039   ZZ=  -100.0759
   XY=    -0.1148   XZ=     3.5639   YZ=     0.2963

 Normal termination of Gaussian 03 at Mon May  4 20:10:47 2015.
