 Gaussian 03, Revision E.01,
 Gaussian 03:  EM64T-G03RevE.01 11-Sep-2007

 -------------------------------------
 # b3lyp/6-31G(d,p) pop=(ReadRadii,MK)
 -------------------------------------

 ---------
 Ca3PO4_55
 ---------
 Symbolic Z-matrix:
 Charge =  0 Multiplicity = 1

                         Standard orientation:
 ---------------------------------------------------------------------
 Center     Atomic     Atomic              Coordinates (Angstroms)
 Number     Number      Type              X           Y           Z
 ---------------------------------------------------------------------
    1          8             0       -0.361359   -1.760670    0.155134
    2          8             0        0.140894    0.921907   -1.009299
    3          8             0        1.641601    1.156458   -1.258729
    4          8             0       -3.750669    0.633612   -0.376376
    5         15             0        0.491186   -1.286971    1.587801
    6         20             0        1.256042    1.613739    0.933519
    7         20             0        1.338190   -1.078611   -1.126579
    8         20             0       -1.800129    0.001444    0.029033
    9          1             0       -4.613579    0.962682   -0.622271
 ---------------------------------------------------------------------

 SCF Done:  E(RB+HF-LYP) =  -2675.60314229     A.U. after   10 cycles

 The electronic state is 1-A.
 Alpha  occ. eigenvalues -- -145.37020-145.36851-145.31149 -77.04273 -19.12702
 Alpha  occ. eigenvalues --  -19.12335 -19.08129 -19.02726 -15.44134 -15.43924
 Alpha  occ. eigenvalues --  -15.38347 -12.57323 -12.57300 -12.57201 -12.57152
 Alpha  occ. eigenvalues --  -12.57089 -12.56987 -12.51583 -12.51545 -12.51346
 Alpha  occ. eigenvalues --   -6.50771  -4.67159  -4.66841  -4.66561  -1.81589
 Alpha  occ. eigenvalues --   -1.81441  -1.76053  -1.10301  -1.09285  -1.09120
 Alpha  occ. eigenvalues --   -1.09023  -1.08878  -1.08516  -1.04128  -1.03979
 Alpha  occ. eigenvalues --   -1.03638  -0.95940  -0.87988  -0.83728  -0.76226
 Alpha  occ. eigenvalues --   -0.49000  -0.37750  -0.36167  -0.35024  -0.34142
 Alpha  occ. eigenvalues --   -0.30695  -0.30461  -0.28983  -0.22865  -0.21237
 Alpha  occ. eigenvalues --   -0.20376  -0.20159  -0.14913  -0.14404
 Alpha virt. eigenvalues --   -0.08561  -0.08101  -0.04071  -0.01726  -0.00653
 Alpha virt. eigenvalues --   -0.00346   0.00884   0.02461   0.02920   0.03440
 Alpha virt. eigenvalues --    0.04046   0.04756   0.06531   0.07604   0.09502

 Mulliken atomic charges:
              1
     1  O   -0.829783
     2  O   -0.620207
     3  O   -0.552068
     4  O   -0.817179
     5  P   -0.179365
     6  Ca   0.745347
     7  Ca   1.038384
     8  Ca   0.948484
     9  H    0.266386
 Sum of Mulliken charges=   0.00000

 Dipole moment (field-independent basis, Debye):
    X=     5.9587    Y=     0.5095    Z=    -3.1629  Tot=     6.7653
 Quadrupole moment (field-independent basis, Debye-Ang):
   XX=   -89.4474   YY=   -82.9270   ZZ=   -86.0672
   XY=    -1.1503   XZ=    -4.0660   YZ=    23.8849

 Normal termination of Gaussian 03 at Mon May  4 20:12:48 2015.
