 Gaussian 03, Revision E.01,
 Gaussian 03:  EM64T-G03RevE.01 11-Sep-2007

 -------------------------------------
 # b3lyp/6-31G(d,p) pop=(ReadRadii,MK)
 -------------------------------------

 ---------
 Ca3PO4_66
 ---------
 Symbolic Z-matrix:
 Charge =  0 Multiplicity = 1

                         Standard orientation:
 ---------------------------------------------------------------------
 Center     Atomic     Atomic              Coordinates (Angstroms)
 Number     Number      Type              X           Y           Z
 ---------------------------------------------------------------------
    1          8             0        0.968698   -1.854829   -0.691498
    2          8             0        0.935733   -0.283043    1.291960
    3          8             0       -1.164390   -0.467776   -0.088935
    4          8             0        1.731589    1.864981   -0.680227
    5         15             0        0.002000   -1.498170    0.543134
    6         20             0       -0.225240    1.549990    0.519331
    7         20             0       -3.324780   -0.010024   -0.416522
    8         20             0        2.464320   -0.248449   -0.377054
    9          1             0        1.910959    2.567551   -1.312500
 ---------------------------------------------------------------------

 SCF Done:  E(RB+HF-LYP) =  -2675.79018844     A.U. after   11 cycles

 The electronic state is 1-A.
 Alpha  occ. eigenvalues -- -145.35647-145.35571-145.34152 -77.10070 -19.10776
 Alpha  occ. eigenvalues --  -19.07361 -19.06493 -19.05236 -15.42791 -15.42736
 Alpha  occ. eigenvalues --  -15.41308 -12.55993 -12.55954 -12.55913 -12.55908
 Alpha  occ. eigenvalues --  -12.55845 -12.55775 -12.54510 -12.54431 -12.54407
 Alpha  occ. eigenvalues --   -6.55189  -4.71587  -4.71516  -4.71003  -1.80411
 Alpha  occ. eigenvalues --   -1.80081  -1.78904  -1.08615  -1.08071  -1.07845
 Alpha  occ. eigenvalues --   -1.07671  -1.07606  -1.07335  -1.06656  -1.06449
 Alpha  occ. eigenvalues --   -1.06272  -0.92323  -0.91928  -0.86136  -0.85142
 Alpha  occ. eigenvalues --   -0.48092  -0.43783  -0.36492  -0.35300  -0.33604
 Alpha  occ. eigenvalues --   -0.30618  -0.28899  -0.28458  -0.26890  -0.24969
 Alpha  occ. eigenvalues --   -0.23058  -0.22250  -0.16750  -0.12410
 Alpha virt. eigenvalues --   -0.07946  -0.06421  -0.02071  -0.01678  -0.00486
 Alpha virt. eigenvalues --    0.00207   0.00984   0.01167   0.03117   0.04095
 Alpha virt. eigenvalues --    0.04543   0.06376   0.07915   0.09595   0.11211

 Mulliken atomic charges:
              1
     1  O   -0.765317
     2  O   -0.860187
     3  O   -0.855956
     4  O   -0.845714
     5  P    0.942267
     6  Ca   0.769635
     7  Ca   0.304865
     8  Ca   1.015448
     9  H    0.294960
 Sum of Mulliken charges=   0.00000

 Dipole moment (field-independent basis, Debye):
    X=     7.6961    Y=     3.6229    Z=    -1.4478  Tot=     8.6285
 Quadrupole moment (field-independent basis, Debye-Ang):
   XX=   -69.1450   YY=   -97.0300   ZZ=   -91.6452
   XY=     8.1870   XZ=    -5.6587   YZ=     1.9756

 Normal termination of Gaussian 03 at Mon May  4 20:13:15 2015.
