 Gaussian 03, Revision E.01,
 Gaussian 03:  EM64T-G03RevE.01 11-Sep-2007

 -------------------------------------
 # b3lyp/6-31G(d,p) pop=(ReadRadii,MK)
 -------------------------------------

 ---------
 Ca3PO4_58
 ---------
 Symbolic Z-matrix:
 Charge =  0 Multiplicity = 1

                         Standard orientation:
 ---------------------------------------------------------------------
 Center     Atomic     Atomic              Coordinates (Angstroms)
 Number     Number      Type              X           Y           Z
 ---------------------------------------------------------------------
    1          8             0        1.469159   -0.172744    0.976996
    2          8             0       -4.395241   -0.112907   -0.318754
    3          8             0       -0.202057    0.336912   -0.912677
    4          8             0       -3.921691    0.273607    1.073430
    5         15             0        0.615965   -1.006510   -0.218940
    6         20             0       -2.203841   -0.498328   -0.285909
    7         20             0        3.524629   -0.773872    0.117150
    8         20             0        1.266059    1.906020   -0.075591
    9          1             0       -4.577811   -0.177679    1.619130
 ---------------------------------------------------------------------

 SCF Done:  E(RB+HF-LYP) =  -2675.56867093     A.U. after   13 cycles

 The electronic state is 1-A.
 Alpha  occ. eigenvalues -- -145.37733-145.37341-145.34825 -77.08731 -19.18224
 Alpha  occ. eigenvalues --  -19.10634 -19.09951 -19.09284 -15.44864 -15.44467
 Alpha  occ. eigenvalues --  -15.42072 -12.58057 -12.58012 -12.57935 -12.57683
 Alpha  occ. eigenvalues --  -12.57608 -12.57530 -12.55300 -12.55264 -12.55064
 Alpha  occ. eigenvalues --   -6.54777  -4.71261  -4.70902  -4.70544  -1.82185
 Alpha  occ. eigenvalues --   -1.81851  -1.79777  -1.09962  -1.09638  -1.09535
 Alpha  occ. eigenvalues --   -1.09503  -1.09206  -1.09090  -1.08533  -1.07659
 Alpha  occ. eigenvalues --   -1.07503  -1.01935  -0.92295  -0.88041  -0.79391
 Alpha  occ. eigenvalues --   -0.50762  -0.48087  -0.38072  -0.36861  -0.35976
 Alpha  occ. eigenvalues --   -0.35106  -0.34538  -0.28641  -0.26822  -0.25982
 Alpha  occ. eigenvalues --   -0.23303  -0.20428  -0.14332  -0.13172
 Alpha virt. eigenvalues --   -0.08752  -0.04661  -0.03890  -0.02482  -0.01643
 Alpha virt. eigenvalues --   -0.01159  -0.00618   0.00440   0.02249   0.03028
 Alpha virt. eigenvalues --    0.03381   0.05610   0.06117   0.06549   0.08146

 Mulliken atomic charges:
              1
     1  O   -0.808779
     2  O   -0.513741
     3  O   -0.847659
     4  O   -0.444079
     5  P    0.285031
     6  Ca   1.024230
     7  Ca   0.400623
     8  Ca   0.559109
     9  H    0.345264
 Sum of Mulliken charges=   0.00000

 Dipole moment (field-independent basis, Debye):
    X=     0.9218    Y=    -1.2301    Z=     1.5578  Tot=     2.1885
 Quadrupole moment (field-independent basis, Debye-Ang):
   XX=  -107.4387   YY=   -86.2814   ZZ=   -91.2593
   XY=    -1.2802   XZ=    -1.9880   YZ=     0.2502

 Normal termination of Gaussian 03 at Mon May  4 20:12:58 2015.
