 Gaussian 03, Revision E.01,
 Gaussian 03:  EM64T-G03RevE.01 11-Sep-2007

 -------------------------------------
 # b3lyp/6-31G(d,p) pop=(ReadRadii,MK)
 -------------------------------------

 ----------
 Ca3PO4_163
 ----------
 Symbolic Z-matrix:
 Charge =  0 Multiplicity = 1

                         Standard orientation:
 ---------------------------------------------------------------------
 Center     Atomic     Atomic              Coordinates (Angstroms)
 Number     Number      Type              X           Y           Z
 ---------------------------------------------------------------------
    1          8             0        2.248842   -1.670886    0.112305
    2          8             0        2.140317    0.859833   -0.178413
    3          8             0       -1.162541   -0.192499   -0.084389
    4          8             0       -0.519101    3.740249    0.286969
    5         15             0        3.051349   -0.363918   -0.061239
    6         20             0       -3.274480   -0.756741   -0.070686
    7         20             0       -0.035006    1.741970   -0.109402
    8         20             0       -0.023589   -2.038740    0.145889
    9          1             0       -0.768884    4.635409    0.510802
 ---------------------------------------------------------------------

 SCF Done:  E(RB+HF-LYP) =  -2675.76931047     A.U. after   11 cycles

 The electronic state is 1-A.
 Alpha  occ. eigenvalues -- -145.36618-145.36182-145.30054 -77.16603 -19.14745
 Alpha  occ. eigenvalues --  -19.14459 -19.04810 -19.02562 -15.43792 -15.43359
 Alpha  occ. eigenvalues --  -15.37366 -12.57016 -12.56927 -12.56844 -12.56540
 Alpha  occ. eigenvalues --  -12.56536 -12.56386 -12.50627 -12.50503 -12.50360
 Alpha  occ. eigenvalues --   -6.62331  -4.78772  -4.78532  -4.78113  -1.81334
 Alpha  occ. eigenvalues --   -1.80791  -1.75249  -1.09207  -1.09000  -1.08781
 Alpha  occ. eigenvalues --   -1.08383  -1.08333  -1.07729  -1.03580  -1.03478
 Alpha  occ. eigenvalues --   -1.02685  -1.00518  -0.95305  -0.83683  -0.79846
 Alpha  occ. eigenvalues --   -0.54172  -0.43601  -0.39822  -0.39685  -0.36019
 Alpha  occ. eigenvalues --   -0.32320  -0.30719  -0.27813  -0.26060  -0.25485
 Alpha  occ. eigenvalues --   -0.23919  -0.20203  -0.20161  -0.14178
 Alpha virt. eigenvalues --   -0.08094  -0.06632  -0.03709  -0.03514  -0.02011
 Alpha virt. eigenvalues --   -0.01182   0.00011   0.00691   0.02115   0.02655
 Alpha virt. eigenvalues --    0.04421   0.04782   0.06332   0.09747   0.09945

 Mulliken atomic charges:
              1
     1  O   -0.669401
     2  O   -0.645412
     3  O   -0.958582
     4  O   -0.834495
     5  P    0.716055
     6  Ca   0.426727
     7  Ca   1.102321
     8  Ca   0.597414
     9  H    0.265372
 Sum of Mulliken charges=   0.00000

 Dipole moment (field-independent basis, Debye):
    X=    -0.5764    Y=    -3.0804    Z=    -0.5724  Tot=     3.1857
 Quadrupole moment (field-independent basis, Debye-Ang):
   XX=   -93.7980   YY=  -101.9038   ZZ=   -85.2023
   XY=    -5.6037   XZ=     0.7482   YZ=    -1.8115

 Normal termination of Gaussian 03 at Mon May  4 20:10:40 2015.
