 Gaussian 03, Revision E.01,
 Gaussian 03:  EM64T-G03RevE.01 11-Sep-2007

 -------------------------------------
 # b3lyp/6-31G(d,p) pop=(ReadRadii,MK)
 -------------------------------------

 ----------
 Ca3PO4_211
 ----------
 Symbolic Z-matrix:
 Charge =  0 Multiplicity = 1

                         Standard orientation:
 ---------------------------------------------------------------------
 Center     Atomic     Atomic              Coordinates (Angstroms)
 Number     Number      Type              X           Y           Z
 ---------------------------------------------------------------------
    1          8             0        2.446320   -0.056076    1.248310
    2          8             0        4.776630    0.202524   -0.001587
    3          8             0        2.444510   -0.055550   -1.248280
    4          8             0       -1.289179   -1.588893    0.001315
    5         15             0        3.310460    0.039091   -0.000582
    6         20             0        0.386044   -0.255932    0.001570
    7         20             0       -3.373569   -1.503504   -0.001025
    8         20             0       -2.631752    2.306887    0.000061
    9          1             0       -4.297600    0.448566   -0.001490
 ---------------------------------------------------------------------

 SCF Done:  E(RB+HF-LYP) =  -2675.64963852     A.U. after    9 cycles

 The electronic state is 1-A.
 Alpha  occ. eigenvalues -- -145.38576-145.37987-145.32797 -77.19158 -19.13212
 Alpha  occ. eigenvalues --  -19.13210 -19.12393 -19.01756 -15.45738 -15.45181
 Alpha  occ. eigenvalues --  -15.39984 -12.58889 -12.58883 -12.58810 -12.58406
 Alpha  occ. eigenvalues --  -12.58364 -12.58171 -12.53197 -12.53186 -12.52995
 Alpha  occ. eigenvalues --   -6.64659  -4.81255  -4.80755  -4.80714  -1.83014
 Alpha  occ. eigenvalues --   -1.82787  -1.77618  -1.10730  -1.10439  -1.10414
 Alpha  occ. eigenvalues --   -1.10325  -1.10060  -1.09505  -1.06061  -1.05484
 Alpha  occ. eigenvalues --   -1.05280  -1.01750  -0.95007  -0.94481  -0.75944
 Alpha  occ. eigenvalues --   -0.50184  -0.41731  -0.40832  -0.40554  -0.34318
 Alpha  occ. eigenvalues --   -0.31402  -0.30453  -0.30160  -0.28566  -0.27028
 Alpha  occ. eigenvalues --   -0.22205  -0.20516  -0.20198  -0.14546
 Alpha virt. eigenvalues --   -0.09572  -0.05929  -0.05092  -0.02648  -0.02391
 Alpha virt. eigenvalues --   -0.01324  -0.00161   0.00654   0.01442   0.02691
 Alpha virt. eigenvalues --    0.02862   0.03663   0.04319   0.07098   0.09223

 Mulliken atomic charges:
              1
     1  O   -0.641755
     2  O   -0.502794
     3  O   -0.641717
     4  O   -0.912644
     5  P    1.140084
     6  Ca   0.979304
     7  Ca   1.024083
     8  Ca  -0.046568
     9  H   -0.397993
 Sum of Mulliken charges=   0.00000

 Dipole moment (field-independent basis, Debye):
    X=   -12.8369    Y=    -3.9033    Z=    -0.0024  Tot=    13.4172
 Quadrupole moment (field-independent basis, Debye-Ang):
   XX=   -89.7362   YY=   -82.7841   ZZ=   -92.7918
   XY=    15.9774   XZ=     0.0245   YZ=     0.0160

 Normal termination of Gaussian 03 at Mon May  4 20:11:37 2015.
