 Gaussian 03, Revision E.01,
 Gaussian 03:  EM64T-G03RevE.01 11-Sep-2007

 -------------------------------------
 # b3lyp/6-31G(d,p) pop=(ReadRadii,MK)
 -------------------------------------

 ----------
 Ca3PO4_119
 ----------
 Symbolic Z-matrix:
 Charge =  0 Multiplicity = 1

                         Standard orientation:
 ---------------------------------------------------------------------
 Center     Atomic     Atomic              Coordinates (Angstroms)
 Number     Number      Type              X           Y           Z
 ---------------------------------------------------------------------
    1          8             0        1.115630    1.288420    0.610916
    2          8             0       -0.468638   -0.002285   -1.711211
    3          8             0        1.114438   -1.287190    0.614609
    4          8             0       -2.360881    0.002010    0.812735
    5         15             0        1.284189    0.002069    1.671739
    6         20             0        1.634429   -0.002343   -1.231731
    7         20             0       -1.178093   -1.534868   -0.129660
    8         20             0       -1.176510    1.535102   -0.133865
    9          1             0       -0.063751    0.003508    2.212649
 ---------------------------------------------------------------------

 SCF Done:  E(RB+HF-LYP) =  -2675.72455009     A.U. after    8 cycles

 The electronic state is 1-A.
 Alpha  occ. eigenvalues -- -145.34436-145.30068-145.30064 -77.08378 -19.07364
 Alpha  occ. eigenvalues --  -19.07362 -19.00686 -18.96155 -15.41535 -15.37155
 Alpha  occ. eigenvalues --  -15.37150 -12.54712 -12.54698 -12.54622 -12.50372
 Alpha  occ. eigenvalues --  -12.50368 -12.50300 -12.50296 -12.50228 -12.50224
 Alpha  occ. eigenvalues --   -6.54225  -4.70619  -4.70497  -4.69955  -1.79197
 Alpha  occ. eigenvalues --   -1.74831  -1.74689  -1.07188  -1.06897  -1.06465
 Alpha  occ. eigenvalues --   -1.03352  -1.02445  -1.02433  -1.02162  -1.01877
 Alpha  occ. eigenvalues --   -1.01494  -0.90806  -0.86143  -0.75283  -0.69994
 Alpha  occ. eigenvalues --   -0.51731  -0.37574  -0.35195  -0.32171  -0.26791
 Alpha  occ. eigenvalues --   -0.26705  -0.23796  -0.20795  -0.20600  -0.19366
 Alpha  occ. eigenvalues --   -0.16955  -0.15532  -0.14119  -0.13150
 Alpha virt. eigenvalues --   -0.07969  -0.04890  -0.04045  -0.00760   0.00420
 Alpha virt. eigenvalues --    0.02279   0.03095   0.03799   0.04024   0.04113
 Alpha virt. eigenvalues --    0.06019   0.06366   0.08194   0.09316   0.09478

 Mulliken atomic charges:
              1
     1  O   -0.856571
     2  O   -0.918466
     3  O   -0.856612
     4  O   -0.867784
     5  P    0.702888
     6  Ca   1.010360
     7  Ca   0.941148
     8  Ca   0.941206
     9  H   -0.096168
 Sum of Mulliken charges=   0.00000

 Dipole moment (field-independent basis, Debye):
    X=     4.3988    Y=    -0.0131    Z=    -6.9321  Tot=     8.2099
 Quadrupole moment (field-independent basis, Debye-Ang):
   XX=   -85.5077   YY=   -58.3714   ZZ=   -91.4932
   XY=    -0.0022   XZ=   -11.2009   YZ=    -0.0415

 Normal termination of Gaussian 03 at Mon May  4 20:09:33 2015.
