 Gaussian 03, Revision E.01,
 Gaussian 03:  EM64T-G03RevE.01 11-Sep-2007

 -------------------------------------
 # b3lyp/6-31G(d,p) pop=(ReadRadii,MK)
 -------------------------------------

 ---------
 Ca3PO4_60
 ---------
 Symbolic Z-matrix:
 Charge =  0 Multiplicity = 1

                         Standard orientation:
 ---------------------------------------------------------------------
 Center     Atomic     Atomic              Coordinates (Angstroms)
 Number     Number      Type              X           Y           Z
 ---------------------------------------------------------------------
    1          8             0       -1.199816   -2.226773   -0.517336
    2          8             0        2.428482   -0.803897    0.258790
    3          8             0       -2.266419   -0.065623    0.060506
    4          8             0        1.754062   -0.881912    1.627380
    5         15             0       -2.558957   -1.566554   -0.278056
    6         20             0        3.866590    0.889776   -0.470565
    7         20             0       -2.571892    2.300686    0.175316
    8         20             0        0.237713   -0.335179   -0.161980
    9          1             0        2.005644   -1.781718    1.880690
 ---------------------------------------------------------------------

 SCF Done:  E(RB+HF-LYP) =  -2675.59235957     A.U. after   12 cycles

 The electronic state is 1-A.
 Alpha  occ. eigenvalues -- -145.38024-145.37996-145.36741 -77.19041 -19.21967
 Alpha  occ. eigenvalues --  -19.17428 -19.16607 -19.16192 -15.45176 -15.45096
 Alpha  occ. eigenvalues --  -15.43907 -12.58329 -12.58324 -12.58316 -12.58265
 Alpha  occ. eigenvalues --  -12.58254 -12.58163 -12.57069 -12.57059 -12.56971
 Alpha  occ. eigenvalues --   -6.64880  -4.81313  -4.81066  -4.80653  -1.82525
 Alpha  occ. eigenvalues --   -1.82435  -1.81207  -1.11419  -1.10374  -1.10192
 Alpha  occ. eigenvalues --   -1.09811  -1.09806  -1.09726  -1.08667  -1.08596
 Alpha  occ. eigenvalues --   -1.08471  -1.05789  -1.03225  -0.97543  -0.84859
 Alpha  occ. eigenvalues --   -0.56528  -0.51436  -0.45272  -0.43156  -0.42777
 Alpha  occ. eigenvalues --   -0.42218  -0.40002  -0.34297  -0.33334  -0.30726
 Alpha  occ. eigenvalues --   -0.29158  -0.26924  -0.14913  -0.13022
 Alpha virt. eigenvalues --   -0.09351  -0.06930  -0.05084  -0.03404  -0.02856
 Alpha virt. eigenvalues --   -0.01974  -0.01317  -0.01157   0.00452   0.01087
 Alpha virt. eigenvalues --    0.02731   0.03581   0.05122   0.05983   0.07848

 Mulliken atomic charges:
              1
     1  O   -0.622292
     2  O   -0.534053
     3  O   -0.699394
     4  O   -0.407108
     5  P    0.798758
     6  Ca   0.161733
     7  Ca   0.105047
     8  Ca   0.838274
     9  H    0.359034
 Sum of Mulliken charges=   0.00000

 Dipole moment (field-independent basis, Debye):
    X=    -1.8892    Y=    -2.7941    Z=     1.6977  Tot=     3.7761
 Quadrupole moment (field-independent basis, Debye-Ang):
   XX=  -100.9811   YY=  -109.0481   ZZ=   -97.2346
   XY=    -2.6000   XZ=     6.2291   YZ=    -2.4006

 Normal termination of Gaussian 03 at Mon May  4 20:12:59 2015.
