 Gaussian 03, Revision E.01,
 Gaussian 03:  EM64T-G03RevE.01 11-Sep-2007

 -------------------------------------
 # b3lyp/6-31G(d,p) pop=(ReadRadii,MK)
 -------------------------------------

 ----------
 Ca3PO4_144
 ----------
 Symbolic Z-matrix:
 Charge =  0 Multiplicity = 1

                         Standard orientation:
 ---------------------------------------------------------------------
 Center     Atomic     Atomic              Coordinates (Angstroms)
 Number     Number      Type              X           Y           Z
 ---------------------------------------------------------------------
    1          8             0        1.251148   -0.406338   -0.962983
    2          8             0       -2.408192   -0.963976   -0.508767
    3          8             0        2.637569    0.583544    0.916863
    4          8             0       -1.994702   -0.774254    0.993195
    5         15             0        2.353818   -0.812267    0.222433
    6         20             0       -2.519471    1.223931    0.086236
    7         20             0        1.143289    1.845090   -0.268230
    8         20             0       -0.360345   -1.781040   -0.132064
    9          1             0        3.536688   -1.087410   -0.561785
 ---------------------------------------------------------------------

 SCF Done:  E(RB+HF-LYP) =  -2675.63789210     A.U. after   10 cycles

 The electronic state is 1-A.
 Alpha  occ. eigenvalues -- -145.36154-145.35305-145.35068 -77.10913 -19.10112
 Alpha  occ. eigenvalues --  -19.10084 -19.09690 -19.07147 -15.43306 -15.42444
 Alpha  occ. eigenvalues --  -15.42228 -12.56522 -12.56465 -12.56349 -12.55662
 Alpha  occ. eigenvalues --  -12.55617 -12.55491 -12.55439 -12.55390 -12.55264
 Alpha  occ. eigenvalues --   -6.56774  -4.73194  -4.73020  -4.72611  -1.80751
 Alpha  occ. eigenvalues --   -1.80041  -1.79706  -1.08649  -1.08560  -1.08349
 Alpha  occ. eigenvalues --   -1.08060  -1.07799  -1.07612  -1.07361  -1.07230
 Alpha  occ. eigenvalues --   -1.06823  -0.93539  -0.92495  -0.88214  -0.73941
 Alpha  occ. eigenvalues --   -0.53085  -0.39058  -0.36499  -0.35484  -0.33675
 Alpha  occ. eigenvalues --   -0.32327  -0.31054  -0.28782  -0.26868  -0.25310
 Alpha  occ. eigenvalues --   -0.21405  -0.18679  -0.18430  -0.14063
 Alpha virt. eigenvalues --   -0.06785  -0.06058  -0.03043  -0.02110  -0.00381
 Alpha virt. eigenvalues --    0.00149   0.01141   0.02282   0.02466   0.03584
 Alpha virt. eigenvalues --    0.05041   0.05597   0.07497   0.07659   0.08677

 Mulliken atomic charges:
              1
     1  O   -0.835496
     2  O   -0.594125
     3  O   -0.733664
     4  O   -0.588041
     5  P    0.627162
     6  Ca   0.565149
     7  Ca   0.509782
     8  Ca   1.172964
     9  H   -0.123732
 Sum of Mulliken charges=   0.00000

 Dipole moment (field-independent basis, Debye):
    X=    -1.8162    Y=    -1.5502    Z=    -2.1600  Tot=     3.2199
 Quadrupole moment (field-independent basis, Debye-Ang):
   XX=   -96.5678   YY=   -72.6041   ZZ=   -93.4888
   XY=    -0.7083   XZ=    -4.9014   YZ=     1.1248

 Normal termination of Gaussian 03 at Mon May  4 20:10:13 2015.
