 Gaussian 03, Revision E.01,
 Gaussian 03:  EM64T-G03RevE.01 11-Sep-2007

 -------------------------------------
 # b3lyp/6-31G(d,p) pop=(ReadRadii,MK)
 -------------------------------------

 ----------
 Ca3PO4_182
 ----------
 Symbolic Z-matrix:
 Charge =  0 Multiplicity = 1

                         Standard orientation:
 ---------------------------------------------------------------------
 Center     Atomic     Atomic              Coordinates (Angstroms)
 Number     Number      Type              X           Y           Z
 ---------------------------------------------------------------------
    1          8             0        0.291796   -1.453452    0.097738
    2          8             0        0.163931    0.953366    0.956845
    3          8             0       -3.506881    0.230611   -1.193410
    4          8             0       -3.945461   -0.246332    0.183259
    5         15             0        0.802484   -0.531545    1.440670
    6         20             0       -1.634711   -0.175278   -0.055196
    7         20             0        1.650731    2.181067   -0.315114
    8         20             0        2.411168   -1.421824   -0.748039
    9          1             0       -4.608110    0.420334    0.401474
 ---------------------------------------------------------------------

 SCF Done:  E(RB+HF-LYP) =  -2675.57477524     A.U. after   11 cycles

 The electronic state is 1-A.
 Alpha  occ. eigenvalues -- -145.38717-145.38075-145.33436 -77.09408 -19.17418
 Alpha  occ. eigenvalues --  -19.11149 -19.09944 -19.09648 -15.45852 -15.45215
 Alpha  occ. eigenvalues --  -15.40656 -12.59041 -12.59013 -12.58913 -12.58394
 Alpha  occ. eigenvalues --  -12.58377 -12.58272 -12.53884 -12.53849 -12.53656
 Alpha  occ. eigenvalues --   -6.55465  -4.71898  -4.71545  -4.71284  -1.83215
 Alpha  occ. eigenvalues --   -1.82533  -1.78373  -1.10817  -1.10645  -1.10488
 Alpha  occ. eigenvalues --   -1.10097  -1.10009  -1.09664  -1.07353  -1.06347
 Alpha  occ. eigenvalues --   -1.06179  -1.01088  -0.93165  -0.88795  -0.78503
 Alpha  occ. eigenvalues --   -0.51430  -0.47273  -0.37603  -0.37272  -0.36528
 Alpha  occ. eigenvalues --   -0.34937  -0.34565  -0.30541  -0.26490  -0.26133
 Alpha  occ. eigenvalues --   -0.22399  -0.19511  -0.15968  -0.13197
 Alpha virt. eigenvalues --   -0.09492  -0.04983  -0.04307  -0.02011  -0.01927
 Alpha virt. eigenvalues --   -0.00755  -0.00266   0.00421   0.01008   0.02971
 Alpha virt. eigenvalues --    0.03888   0.05491   0.06706   0.07397   0.07801

 Mulliken atomic charges:
              1
     1  O   -0.847095
     2  O   -0.817308
     3  O   -0.517449
     4  O   -0.441377
     5  P    0.409559
     6  Ca   1.137565
     7  Ca   0.265720
     8  Ca   0.465735
     9  H    0.344651
 Sum of Mulliken charges=   0.00000

 Dipole moment (field-independent basis, Debye):
    X=     3.1512    Y=    -0.7061    Z=     0.1476  Tot=     3.2327
 Quadrupole moment (field-independent basis, Debye-Ang):
   XX=   -97.7753   YY=   -82.5501   ZZ=   -99.9044
   XY=    -8.6496   XZ=   -10.9366   YZ=     9.8268

 Normal termination of Gaussian 03 at Mon May  4 20:11:12 2015.
