 Gaussian 03, Revision E.01,
 Gaussian 03:  EM64T-G03RevE.01 11-Sep-2007

 -------------------------------------
 # b3lyp/6-31G(d,p) pop=(ReadRadii,MK)
 -------------------------------------

 ----------
 Ca3PO4_147
 ----------
 Symbolic Z-matrix:
 Charge =  0 Multiplicity = 1

                         Standard orientation:
 ---------------------------------------------------------------------
 Center     Atomic     Atomic              Coordinates (Angstroms)
 Number     Number      Type              X           Y           Z
 ---------------------------------------------------------------------
    1          8             0       -1.193050   -0.485169   -0.740425
    2          8             0       -1.299420   -0.442906    0.814036
    3          8             0        1.478900    0.904592    0.245788
    4          8             0        2.923230   -1.109470   -0.319016
    5         15             0        3.059160    0.495603   -0.194690
    6         20             0       -0.572127    1.679890    0.014063
    7         20             0       -3.447210   -0.301853   -0.115080
    8         20             0        0.778319   -1.328890    0.190139
    9          1             0        3.655680    0.646654    1.134840
 ---------------------------------------------------------------------

 SCF Done:  E(RB+HF-LYP) =  -2675.66275011     A.U. after   14 cycles

 The electronic state is 1-A.
 Alpha  occ. eigenvalues -- -145.37367-145.37175-145.34779 -77.07972 -19.15683
 Alpha  occ. eigenvalues --  -19.15589 -19.07847 -19.05226 -15.44507 -15.44281
 Alpha  occ. eigenvalues --  -15.41958 -12.57697 -12.57659 -12.57567 -12.57485
 Alpha  occ. eigenvalues --  -12.57430 -12.57371 -12.55170 -12.55150 -12.54975
 Alpha  occ. eigenvalues --   -6.53720  -4.70140  -4.69972  -4.69469  -1.81853
 Alpha  occ. eigenvalues --   -1.81730  -1.79654  -1.10726  -1.09441  -1.09417
 Alpha  occ. eigenvalues --   -1.09268  -1.09221  -1.08911  -1.07578  -1.07479
 Alpha  occ. eigenvalues --   -1.07246  -0.98568  -0.90673  -0.85712  -0.79467
 Alpha  occ. eigenvalues --   -0.50880  -0.39305  -0.38616  -0.37978  -0.36565
 Alpha  occ. eigenvalues --   -0.34700  -0.32178  -0.26908  -0.26283  -0.25172
 Alpha  occ. eigenvalues --   -0.24337  -0.23486  -0.15426  -0.14091
 Alpha virt. eigenvalues --   -0.08437  -0.06082  -0.04846  -0.03166  -0.00615
 Alpha virt. eigenvalues --   -0.00458   0.00063   0.01220   0.02476   0.03124
 Alpha virt. eigenvalues --    0.03734   0.04202   0.05406   0.08884   0.09390

 Mulliken atomic charges:
              1
     1  O   -0.598651
     2  O   -0.592502
     3  O   -0.880005
     4  O   -0.786127
     5  P    0.682914
     6  Ca   0.772119
     7  Ca   0.431365
     8  Ca   1.129206
     9  H   -0.158318
 Sum of Mulliken charges=   0.00000

 Dipole moment (field-independent basis, Debye):
    X=    -4.9470    Y=    -2.4361    Z=     1.5725  Tot=     5.7341
 Quadrupole moment (field-independent basis, Debye-Ang):
   XX=  -124.0142   YY=   -74.5622   ZZ=   -89.3029
   XY=     5.5105   XZ=     3.9510   YZ=    -2.3770

 Normal termination of Gaussian 03 at Mon May  4 20:10:27 2015.
