 Gaussian 03, Revision E.01,
 Gaussian 03:  EM64T-G03RevE.01 11-Sep-2007

 -------------------------------------
 # b3lyp/6-31G(d,p) pop=(ReadRadii,MK)
 -------------------------------------

 ---------
 Ca3PO4_43
 ---------
 Symbolic Z-matrix:
 Charge =  0 Multiplicity = 1

                         Standard orientation:
 ---------------------------------------------------------------------
 Center     Atomic     Atomic              Coordinates (Angstroms)
 Number     Number      Type              X           Y           Z
 ---------------------------------------------------------------------
    1          8             0       -1.960609    0.484655    0.856758
    2          8             0        0.529687   -0.821490   -0.778833
    3          8             0        0.667881   -0.935251    0.772586
    4          8             0        2.304511    1.600419    0.078111
    5         15             0       -2.763289    0.859099   -0.584110
    6         20             0        0.040737    1.345411    0.166766
    7         20             0        2.745060   -0.613272   -0.191026
    8         20             0       -1.474431   -1.625718    0.090992
    9          1             0        2.890262    2.358449   -0.001950
 ---------------------------------------------------------------------

 SCF Done:  E(RB+HF-LYP) =  -2675.63188214     A.U. after   15 cycles

 The electronic state is 1-A.
 Alpha  occ. eigenvalues -- -145.36192-145.35559-145.32724 -77.04341 -19.13734
 Alpha  occ. eigenvalues --  -19.13400 -19.10116 -19.08203 -15.43330 -15.42654
 Alpha  occ. eigenvalues --  -15.39876 -12.56526 -12.56451 -12.56442 -12.55856
 Alpha  occ. eigenvalues --  -12.55790 -12.55763 -12.53094 -12.53054 -12.52921
 Alpha  occ. eigenvalues --   -6.50851  -4.67227  -4.67073  -4.66506  -1.80796
 Alpha  occ. eigenvalues --   -1.80088  -1.77522  -1.09392  -1.08488  -1.08329
 Alpha  occ. eigenvalues --   -1.08014  -1.07618  -1.07490  -1.05493  -1.05246
 Alpha  occ. eigenvalues --   -1.05034  -0.96534  -0.91521  -0.88694  -0.77467
 Alpha  occ. eigenvalues --   -0.48102  -0.43478  -0.37257  -0.36598  -0.35475
 Alpha  occ. eigenvalues --   -0.31015  -0.30137  -0.29386  -0.29176  -0.27981
 Alpha  occ. eigenvalues --   -0.24725  -0.22765  -0.12918  -0.11431
 Alpha virt. eigenvalues --   -0.09210  -0.07285  -0.03811  -0.03011  -0.01340
 Alpha virt. eigenvalues --   -0.00214   0.01078   0.01473   0.02068   0.03559
 Alpha virt. eigenvalues --    0.04416   0.04659   0.04960   0.06433   0.08100

 Mulliken atomic charges:
              1
     1  O   -0.787107
     2  O   -0.593272
     3  O   -0.607459
     4  O   -0.845536
     5  P   -0.115282
     6  Ca   0.600108
     7  Ca   1.150877
     8  Ca   0.902433
     9  H    0.295239
 Sum of Mulliken charges=   0.00000

 Dipole moment (field-independent basis, Debye):
    X=     5.0067    Y=    -1.8620    Z=     2.0358  Tot=     5.7165
 Quadrupole moment (field-independent basis, Debye-Ang):
   XX=  -102.0105   YY=   -76.7311   ZZ=   -91.1869
   XY=    12.7435   XZ=    -3.3936   YZ=    -0.1760

 Normal termination of Gaussian 03 at Mon May  4 20:12:43 2015.
