 Gaussian 03, Revision E.01,
 Gaussian 03:  EM64T-G03RevE.01 11-Sep-2007

 -------------------------------------
 # b3lyp/6-31G(d,p) pop=(ReadRadii,MK)
 -------------------------------------

 ---------
 Ca3PO4_15
 ---------
 Symbolic Z-matrix:
 Charge =  0 Multiplicity = 1

                         Standard orientation:
 ---------------------------------------------------------------------
 Center     Atomic     Atomic              Coordinates (Angstroms)
 Number     Number      Type              X           Y           Z
 ---------------------------------------------------------------------
    1          8             0        2.924681    0.874677    0.020915
    2          8             0        1.246341   -0.611633    1.236120
    3          8             0       -1.402349    0.774541   -0.035508
    4          8             0        1.281471   -0.622890   -1.228520
    5         15             0        2.381601   -0.618313    0.019612
    6         20             0       -0.517947   -1.387739   -0.018376
    7         20             0        0.716738    1.510681   -0.012846
    8         20             0       -3.462019    0.268243    0.018295
    9          1             0       -2.860599   -1.866539    0.020347
 ---------------------------------------------------------------------

 SCF Done:  E(RB+HF-LYP) =  -2675.74015120     A.U. after   12 cycles

 The electronic state is 1-A.
 Alpha  occ. eigenvalues -- -145.39496-145.31929-145.31908 -77.08176 -19.04297
 Alpha  occ. eigenvalues --  -19.04246 -19.04088 -19.03309 -15.46615 -15.39068
 Alpha  occ. eigenvalues --  -15.39050 -12.59834 -12.59747 -12.59681 -12.52263
 Alpha  occ. eigenvalues --  -12.52254 -12.52252 -12.52242 -12.52134 -12.52069
 Alpha  occ. eigenvalues --   -6.53427  -4.69763  -4.69727  -4.69397  -1.84054
 Alpha  occ. eigenvalues --   -1.76779  -1.76619  -1.11888  -1.11383  -1.11062
 Alpha  occ. eigenvalues --   -1.05430  -1.04520  -1.04492  -1.04262  -1.03980
 Alpha  occ. eigenvalues --   -1.03587  -0.90460  -0.83588  -0.82962  -0.78854
 Alpha  occ. eigenvalues --   -0.44619  -0.32856  -0.32358  -0.31913  -0.28255
 Alpha  occ. eigenvalues --   -0.26136  -0.24635  -0.24436  -0.23505  -0.22463
 Alpha  occ. eigenvalues --   -0.21240  -0.20283  -0.18665  -0.13808
 Alpha virt. eigenvalues --   -0.11329  -0.04700  -0.04372  -0.02856  -0.01919
 Alpha virt. eigenvalues --   -0.00345   0.01723   0.02587   0.03559   0.04409
 Alpha virt. eigenvalues --    0.05500   0.06328   0.07812   0.10372   0.10535

 Mulliken atomic charges:
              1
     1  O   -0.729953
     2  O   -0.805659
     3  O   -0.942981
     4  O   -0.806809
     5  P    0.994725
     6  Ca   0.907336
     7  Ca   0.940046
     8  Ca   0.840401
     9  H   -0.397104
 Sum of Mulliken charges=   0.00000

 Dipole moment (field-independent basis, Debye):
    X=   -14.4148    Y=     3.3784    Z=    -0.0460  Tot=    14.8055
 Quadrupole moment (field-independent basis, Debye-Ang):
   XX=   -79.4777   YY=   -69.7500   ZZ=   -89.0769
   XY=    -4.3442   XZ=    -0.3738   YZ=     0.2256

 Normal termination of Gaussian 03 at Mon May  4 20:10:45 2015.
