 Gaussian 03, Revision E.01,
 Gaussian 03:  EM64T-G03RevE.01 11-Sep-2007

 -------------------------------------
 # b3lyp/6-31G(d,p) pop=(ReadRadii,MK)
 -------------------------------------

 ---------
 Ca3PO4_37
 ---------
 Symbolic Z-matrix:
 Charge =  0 Multiplicity = 1

                         Standard orientation:
 ---------------------------------------------------------------------
 Center     Atomic     Atomic              Coordinates (Angstroms)
 Number     Number      Type              X           Y           Z
 ---------------------------------------------------------------------
    1          8             0       -0.429058    2.529060   -0.119603
    2          8             0        2.519410   -0.413839    0.598585
    3          8             0        2.238421   -0.767538   -0.903926
    4          8             0       -0.627516   -0.001122    0.292299
    5         15             0       -1.419603    1.479268    0.539773
    6         20             0        1.413267    1.259903   -0.421048
    7         20             0        0.795028   -1.857158    0.437210
    8         20             0       -2.565639   -1.131674   -0.466127
    9          1             0       -1.169134    1.617068    1.963870
 ---------------------------------------------------------------------

 SCF Done:  E(RB+HF-LYP) =  -2675.64479684     A.U. after   12 cycles

 The electronic state is 1-A.
 Alpha  occ. eigenvalues -- -145.37883-145.35608-145.34163 -77.11738 -19.11354
 Alpha  occ. eigenvalues --  -19.09595 -19.09492 -19.08372 -15.45021 -15.42716
 Alpha  occ. eigenvalues --  -15.41346 -12.58200 -12.58172 -12.58090 -12.55914
 Alpha  occ. eigenvalues --  -12.55889 -12.55788 -12.54567 -12.54550 -12.54348
 Alpha  occ. eigenvalues --   -6.57577  -4.74022  -4.73810  -4.73362  -1.82331
 Alpha  occ. eigenvalues --   -1.80212  -1.79050  -1.09840  -1.09766  -1.09603
 Alpha  occ. eigenvalues --   -1.08591  -1.07910  -1.07822  -1.07020  -1.06884
 Alpha  occ. eigenvalues --   -1.06401  -0.94510  -0.91997  -0.89531  -0.73426
 Alpha  occ. eigenvalues --   -0.54553  -0.40709  -0.38166  -0.36898  -0.33165
 Alpha  occ. eigenvalues --   -0.31630  -0.30778  -0.29483  -0.28370  -0.26851
 Alpha  occ. eigenvalues --   -0.20270  -0.19658  -0.18567  -0.14065
 Alpha virt. eigenvalues --   -0.07547  -0.05021  -0.03733  -0.02317  -0.00952
 Alpha virt. eigenvalues --   -0.00481   0.00932   0.02698   0.03044   0.03692
 Alpha virt. eigenvalues --    0.04387   0.05526   0.05922   0.07693   0.08209

 Mulliken atomic charges:
              1
     1  O   -0.756766
     2  O   -0.588447
     3  O   -0.589367
     4  O   -0.892792
     5  P    0.657283
     6  Ca   1.155739
     7  Ca   0.887025
     8  Ca   0.249680
     9  H   -0.122356
 Sum of Mulliken charges=   0.00000

 Dipole moment (field-independent basis, Debye):
    X=     0.4453    Y=     0.4632    Z=    -0.0705  Tot=     0.6464
 Quadrupole moment (field-independent basis, Debye-Ang):
   XX=   -95.0848   YY=   -92.1344   ZZ=   -86.4125
   XY=     8.1307   XZ=     0.4563   YZ=    -8.9434

 Normal termination of Gaussian 03 at Mon May  4 20:12:20 2015.
