 Gaussian 03, Revision E.01,
 Gaussian 03:  EM64T-G03RevE.01 11-Sep-2007

 -------------------------------------
 # b3lyp/6-31G(d,p) pop=(ReadRadii,MK)
 -------------------------------------

 ---------
 Ca3PO4_75
 ---------
 Symbolic Z-matrix:
 Charge =  0 Multiplicity = 1

                         Standard orientation:
 ---------------------------------------------------------------------
 Center     Atomic     Atomic              Coordinates (Angstroms)
 Number     Number      Type              X           Y           Z
 ---------------------------------------------------------------------
    1          8             0       -1.284672   -1.972869   -0.181357
    2          8             0        0.032818   -1.335340    0.064307
    3          8             0       -1.003639    0.850907    0.901524
    4          8             0        1.466021    0.395399    1.015370
    5         15             0        0.038969   -0.243517    1.484430
    6         20             0       -2.493800   -0.085329   -0.604465
    7         20             0        0.498187    2.055889   -0.464009
    8         20             0        2.186089   -1.004283   -0.671295
    9          1             0        1.921731    0.822463   -1.869780
 ---------------------------------------------------------------------

 SCF Done:  E(RB+HF-LYP) =  -2675.60800651     A.U. after   14 cycles

 The electronic state is 1-A.
 Alpha  occ. eigenvalues -- -145.38932-145.37415-145.35700 -77.14321 -19.16984
 Alpha  occ. eigenvalues --  -19.10546 -19.10480 -19.10267 -15.46033 -15.44494
 Alpha  occ. eigenvalues --  -15.42836 -12.59221 -12.59177 -12.59140 -12.57716
 Alpha  occ. eigenvalues --  -12.57620 -12.57591 -12.56057 -12.55964 -12.55908
 Alpha  occ. eigenvalues --   -6.59613  -4.76034  -4.75907  -4.75360  -1.83411
 Alpha  occ. eigenvalues --   -1.81809  -1.80241  -1.11309  -1.10995  -1.10649
 Alpha  occ. eigenvalues --   -1.09655  -1.09229  -1.09015  -1.08066  -1.07795
 Alpha  occ. eigenvalues --   -1.07596  -1.01617  -0.95277  -0.90706  -0.77755
 Alpha  occ. eigenvalues --   -0.52970  -0.42965  -0.41185  -0.39717  -0.37449
 Alpha  occ. eigenvalues --   -0.34513  -0.31093  -0.29291  -0.28211  -0.26934
 Alpha  occ. eigenvalues --   -0.23069  -0.20996  -0.19667  -0.11851
 Alpha virt. eigenvalues --   -0.09263  -0.07192  -0.03092  -0.01686  -0.00789
 Alpha virt. eigenvalues --   -0.00643   0.00376   0.01212   0.01792   0.02713
 Alpha virt. eigenvalues --    0.03942   0.04954   0.06065   0.07375   0.08431

 Mulliken atomic charges:
              1
     1  O   -0.496407
     2  O   -0.551031
     3  O   -0.821761
     4  O   -0.838553
     5  P    1.023278
     6  Ca   0.593488
     7  Ca   0.629731
     8  Ca   0.838521
     9  H   -0.377266
 Sum of Mulliken charges=   0.00000

 Dipole moment (field-independent basis, Debye):
    X=     3.9586    Y=    -0.2558    Z=    -0.8309  Tot=     4.0529
 Quadrupole moment (field-independent basis, Debye-Ang):
   XX=   -78.5048   YY=   -91.7470   ZZ=  -103.6043
   XY=    -3.2645   XZ=    -2.4366   YZ=     7.3378

 Normal termination of Gaussian 03 at Mon May  4 20:13:38 2015.
