 Gaussian 03, Revision E.01,
 Gaussian 03:  EM64T-G03RevE.01 11-Sep-2007

 -------------------------------------
 # b3lyp/6-31G(d,p) pop=(ReadRadii,MK)
 -------------------------------------

 --------
 Ca3PO4_1
 --------
 Symbolic Z-matrix:
 Charge =  0 Multiplicity = 1

                         Standard orientation:
 ---------------------------------------------------------------------
 Center     Atomic     Atomic              Coordinates (Angstroms)
 Number     Number      Type              X           Y           Z
 ---------------------------------------------------------------------
    1          9             0       -0.004883    0.002000    0.019812
    2          8             0       -2.932053    0.685054   -0.355002
    3          8             0        0.825923    1.054439   -0.292215
    4          8             0       -1.529526   -1.440162   -0.219805
    5          8             0        2.757086   -1.348236    0.255284
    6         15             0       -2.873143   -0.830877   -0.639560
    7         20             0       -1.045594    1.600110    0.637761
    8         20             0        2.924194    0.564515   -0.652066
    9         20             0        0.629883   -1.122806    0.729754
 ---------------------------------------------------------------------

 SCF Done:  E(RB+HF-LYP) =  -2774.40495528     A.U. after   15 cycles

 The electronic state is 1-A.
 Alpha  occ. eigenvalues -- -145.37382-145.34996-145.27574 -77.16625 -24.78993
 Alpha  occ. eigenvalues --  -19.21247 -19.14805 -19.14783 -19.00452 -15.44814
 Alpha  occ. eigenvalues --  -15.42253 -15.36467 -12.57997 -12.57917 -12.57854
 Alpha  occ. eigenvalues --  -12.55449 -12.55389 -12.55293 -12.49474 -12.49431
 Alpha  occ. eigenvalues --  -12.49291  -6.62401  -4.78829  -4.78594  -4.78189
 Alpha  occ. eigenvalues --   -1.83153  -1.81646  -1.80055  -1.42851  -1.13892
 Alpha  occ. eigenvalues --   -1.10838  -1.10370  -1.08906  -1.07845  -1.07200
 Alpha  occ. eigenvalues --   -1.06464  -1.05978  -1.05043  -1.01143  -0.95766
 Alpha  occ. eigenvalues --   -0.89821  -0.74109  -0.61009  -0.60666  -0.53959
 Alpha  occ. eigenvalues --   -0.51396  -0.43494  -0.40169  -0.39727  -0.36065
 Alpha  occ. eigenvalues --   -0.33853  -0.32281  -0.30967  -0.27509  -0.19460
 Alpha  occ. eigenvalues --   -0.18495  -0.18006  -0.13073
 Alpha virt. eigenvalues --   -0.08970  -0.06782  -0.06642  -0.04883  -0.02271
 Alpha virt. eigenvalues --   -0.01224  -0.00474   0.00937   0.01094   0.01407
 Alpha virt. eigenvalues --    0.02562   0.04154   0.05140   0.05890   0.09191

 Mulliken atomic charges:
              1
     1  F   -0.288973
     2  O   -0.655088
     3  O   -0.433275
     4  O   -0.645866
     5  O   -0.857190
     6  P    0.742156
     7  Ca   0.501283
     8  Ca   0.876018
     9  Ca   0.760935
 Sum of Mulliken charges=   0.00000

 Dipole moment (field-independent basis, Debye):
    X=    -0.2071    Y=     2.3661    Z=    -1.4427  Tot=     2.7789
 Quadrupole moment (field-independent basis, Debye-Ang):
   XX=   -98.8023   YY=  -100.5019   ZZ=   -92.7123
   XY=    12.2899   XZ=   -11.0937   YZ=    -4.6747

 Normal termination of Gaussian 03 at Mon May  4 20:42:14 2015.
