 Gaussian 03, Revision E.01,
 Gaussian 03:  EM64T-G03RevE.01 11-Sep-2007

 -------------------------------------
 # b3lyp/6-31G(d,p) pop=(ReadRadii,MK)
 -------------------------------------

 ---------
 Ca3PO4_82
 ---------
 Symbolic Z-matrix:
 Charge =  0 Multiplicity = 1

                         Standard orientation:
 ---------------------------------------------------------------------
 Center     Atomic     Atomic              Coordinates (Angstroms)
 Number     Number      Type              X           Y           Z
 ---------------------------------------------------------------------
    1          8             0       -0.523257    0.515472    1.130440
    2          8             0       -2.538157   -0.876108    0.572652
    3          8             0       -0.420217   -1.057930   -0.800941
    4          8             0        2.722370    0.345700   -0.125002
    5         15             0       -0.985984   -1.047771    0.818596
    6         20             0       -1.860811    0.827191   -0.860329
    7         20             0        1.734045   -1.516774   -0.352644
    8         20             0        1.192286    1.775164    0.344209
    9          1             0       -0.446556    2.587870   -1.120850
 ---------------------------------------------------------------------

 SCF Done:  E(RB+HF-LYP) =  -2675.74372302     A.U. after   11 cycles

 The electronic state is 1-A.
 Alpha  occ. eigenvalues -- -145.35097-145.34048-145.31857 -77.09945 -19.06228
 Alpha  occ. eigenvalues --  -19.05811 -19.04384 -18.98925 -15.42187 -15.41165
 Alpha  occ. eigenvalues --  -15.39007 -12.55383 -12.55373 -12.55247 -12.54394
 Alpha  occ. eigenvalues --  -12.54335 -12.54191 -12.52243 -12.52154 -12.52048
 Alpha  occ. eigenvalues --   -6.55207  -4.71601  -4.71519  -4.71097  -1.79670
 Alpha  occ. eigenvalues --   -1.78734  -1.76628  -1.07904  -1.07230  -1.06783
 Alpha  occ. eigenvalues --   -1.06700  -1.06416  -1.05748  -1.04619  -1.04246
 Alpha  occ. eigenvalues --   -1.03593  -0.92007  -0.85033  -0.84685  -0.72900
 Alpha  occ. eigenvalues --   -0.47173  -0.35179  -0.34258  -0.33856  -0.28014
 Alpha  occ. eigenvalues --   -0.27308  -0.24878  -0.23088  -0.22676  -0.19881
 Alpha  occ. eigenvalues --   -0.18749  -0.17351  -0.16990  -0.16870
 Alpha virt. eigenvalues --   -0.06694  -0.05362  -0.03853  -0.00216   0.00491
 Alpha virt. eigenvalues --    0.02026   0.02569   0.02912   0.03582   0.04140
 Alpha virt. eigenvalues --    0.05907   0.06454   0.07488   0.10252   0.10548

 Mulliken atomic charges:
              1
     1  O   -0.840798
     2  O   -0.733919
     3  O   -0.865498
     4  O   -0.906466
     5  P    0.939914
     6  Ca   0.895572
     7  Ca   0.950339
     8  Ca   0.983092
     9  H   -0.422237
 Sum of Mulliken charges=   0.00000

 Dipole moment (field-independent basis, Debye):
    X=     1.2761    Y=     1.2898    Z=    -3.4399  Tot=     3.8891
 Quadrupole moment (field-independent basis, Debye-Ang):
   XX=   -88.8881   YY=   -65.6867   ZZ=   -82.1990
   XY=   -21.3145   XZ=    13.9220   YZ=     9.4934

 Normal termination of Gaussian 03 at Mon May  4 20:13:35 2015.
