 Gaussian 03, Revision E.01,
 Gaussian 03:  EM64T-G03RevE.01 11-Sep-2007

 -------------------------------------
 # b3lyp/6-31G(d,p) pop=(ReadRadii,MK)
 -------------------------------------

 ---------
 Ca3PO4_89
 ---------
 Symbolic Z-matrix:
 Charge =  0 Multiplicity = 1

                         Standard orientation:
 ---------------------------------------------------------------------
 Center     Atomic     Atomic              Coordinates (Angstroms)
 Number     Number      Type              X           Y           Z
 ---------------------------------------------------------------------
    1          8             0        1.170980    0.770030    1.247440
    2          8             0        0.979006   -0.750170    1.165550
    3          8             0        0.845150   -0.246891   -1.288200
    4          8             0       -1.330340   -0.608229   -0.079403
    5         15             0        0.126077   -1.298329   -0.284036
    6         20             0       -3.522830   -0.165537    0.140707
    7         20             0       -0.407810    1.533301   -0.280335
    8         20             0        2.922660   -0.076141   -0.041913
    9          1             0        4.950060    0.324574   -0.471785
 ---------------------------------------------------------------------

 SCF Done:  E(RB+HF-LYP) =  -2675.63675926     A.U. after   11 cycles

 The electronic state is 1-A.
 Alpha  occ. eigenvalues -- -145.39378-145.38777-145.34581 -77.15560 -19.18308
 Alpha  occ. eigenvalues --  -19.14267 -19.12565 -19.10896 -15.46515 -15.45849
 Alpha  occ. eigenvalues --  -15.41833 -12.59687 -12.59683 -12.59572 -12.59043
 Alpha  occ. eigenvalues --  -12.59001 -12.58953 -12.55066 -12.55014 -12.54820
 Alpha  occ. eigenvalues --   -6.60912  -4.77326  -4.77199  -4.76689  -1.83791
 Alpha  occ. eigenvalues --   -1.83265  -1.79509  -1.11599  -1.11269  -1.11188
 Alpha  occ. eigenvalues --   -1.10930  -1.10763  -1.10695  -1.07696  -1.07544
 Alpha  occ. eigenvalues --   -1.07158  -1.01654  -0.96345  -0.91709  -0.81752
 Alpha  occ. eigenvalues --   -0.54366  -0.44716  -0.41754  -0.41210  -0.37689
 Alpha  occ. eigenvalues --   -0.36803  -0.32608  -0.29625  -0.28969  -0.26481
 Alpha  occ. eigenvalues --   -0.24808  -0.23484  -0.20392  -0.15587
 Alpha virt. eigenvalues --   -0.09729  -0.05077  -0.04232  -0.02601  -0.01927
 Alpha virt. eigenvalues --   -0.01184  -0.00688   0.01026   0.01322   0.03004
 Alpha virt. eigenvalues --    0.03198   0.05056   0.05845   0.07197   0.08039

 Mulliken atomic charges:
              1
     1  O   -0.552196
     2  O   -0.463032
     3  O   -0.821995
     4  O   -0.821087
     5  P    0.965107
     6  Ca   0.371313
     7  Ca   0.836803
     8  Ca   0.779545
     9  H   -0.294458
 Sum of Mulliken charges=   0.00000

 Dipole moment (field-independent basis, Debye):
    X=    -5.3807    Y=     1.5114    Z=    -0.6417  Tot=     5.6257
 Quadrupole moment (field-independent basis, Debye-Ang):
   XX=  -116.5152   YY=   -83.0680   ZZ=   -97.2542
   XY=     3.8160   XZ=     2.4846   YZ=    -3.5418

 Normal termination of Gaussian 03 at Mon May  4 20:13:46 2015.
