 Gaussian 03, Revision E.01,
 Gaussian 03:  EM64T-G03RevE.01 11-Sep-2007

 -------------------------------------
 # b3lyp/6-31G(d,p) pop=(ReadRadii,MK)
 -------------------------------------

 ----------
 Ca3PO4_151
 ----------
 Symbolic Z-matrix:
 Charge =  0 Multiplicity = 1

                         Standard orientation:
 ---------------------------------------------------------------------
 Center     Atomic     Atomic              Coordinates (Angstroms)
 Number     Number      Type              X           Y           Z
 ---------------------------------------------------------------------
    1          8             0        0.312598    0.787948   -1.360700
    2          8             0       -2.426249   -0.374386   -0.587737
    3          8             0        1.571930   -1.325900    0.327962
    4          8             0       -2.980179   -0.175428    0.782539
    5         15             0        1.003741   -0.506018    1.762540
    6         20             0       -0.315334   -1.331910   -0.881662
    7         20             0        2.303321    0.739328   -0.382710
    8         20             0       -1.135629    1.413930    0.248383
    9          1             0       -3.928059   -0.134560    0.585173
 ---------------------------------------------------------------------

 SCF Done:  E(RB+HF-LYP) =  -2675.57413806     A.U. after   12 cycles

 The electronic state is 1-A.
 Alpha  occ. eigenvalues -- -145.33537-145.33367-145.33316 -77.01830 -19.19531
 Alpha  occ. eigenvalues --  -19.13238 -19.05815 -19.01094 -15.40598 -15.40496
 Alpha  occ. eigenvalues --  -15.40384 -12.53820 -12.53736 -12.53707 -12.53687
 Alpha  occ. eigenvalues --  -12.53623 -12.53622 -12.53580 -12.53528 -12.53456
 Alpha  occ. eigenvalues --   -6.48335  -4.64745  -4.64423  -4.64085  -1.78092
 Alpha  occ. eigenvalues --   -1.78038  -1.77886  -1.07835  -1.06471  -1.05852
 Alpha  occ. eigenvalues --   -1.05729  -1.05609  -1.05476  -1.05093  -1.04942
 Alpha  occ. eigenvalues --   -1.04828  -1.03537  -0.85354  -0.81623  -0.75951
 Alpha  occ. eigenvalues --   -0.49072  -0.46455  -0.40508  -0.37663  -0.28492
 Alpha  occ. eigenvalues --   -0.28317  -0.26893  -0.26224  -0.23276  -0.21430
 Alpha  occ. eigenvalues --   -0.21093  -0.19382  -0.12088  -0.11712
 Alpha virt. eigenvalues --   -0.07025  -0.05846  -0.05481  -0.01128  -0.00121
 Alpha virt. eigenvalues --    0.00517   0.01408   0.01807   0.02654   0.03633
 Alpha virt. eigenvalues --    0.04390   0.05696   0.06285   0.07879   0.09527

 Mulliken atomic charges:
              1
     1  O   -0.922494
     2  O   -0.564340
     3  O   -0.835453
     4  O   -0.371291
     5  P   -0.193013
     6  Ca   0.968156
     7  Ca   0.755446
     8  Ca   0.822969
     9  H    0.340020
 Sum of Mulliken charges=   0.00000

 Dipole moment (field-independent basis, Debye):
    X=    -1.5201    Y=     0.6186    Z=    -4.8357  Tot=     5.1065
 Quadrupole moment (field-independent basis, Debye-Ang):
   XX=   -70.8666   YY=   -75.1786   ZZ=   -99.4329
   XY=     2.3169   XZ=   -12.6877   YZ=    13.5531

 Normal termination of Gaussian 03 at Mon May  4 20:10:32 2015.
