 Gaussian 03, Revision E.01,
 Gaussian 03:  EM64T-G03RevE.01 11-Sep-2007

 -------------------------------------
 # b3lyp/6-31G(d,p) pop=(ReadRadii,MK)
 -------------------------------------

 ---------
 Ca3PO4_87
 ---------
 Symbolic Z-matrix:
 Charge =  0 Multiplicity = 1

                         Standard orientation:
 ---------------------------------------------------------------------
 Center     Atomic     Atomic              Coordinates (Angstroms)
 Number     Number      Type              X           Y           Z
 ---------------------------------------------------------------------
    1          8             0        2.558689   -0.097531    0.858692
    2          8             0        1.216399    0.589897    0.823659
    3          8             0       -0.187263   -1.422200    0.037748
    4          8             0       -1.226291    0.579719    1.053790
    5         15             0       -0.059566   -0.497790    1.401130
    6         20             0       -0.215017    2.026580   -0.496076
    7         20             0       -2.485751   -0.726795   -0.480782
    8         20             0        1.744499   -0.835951   -1.077300
    9          1             0        1.126619    0.991069   -2.124900
 ---------------------------------------------------------------------

 SCF Done:  E(RB+HF-LYP) =  -2675.61421336     A.U. after   12 cycles

 The electronic state is 1-A.
 Alpha  occ. eigenvalues -- -145.38600-145.37067-145.36519 -77.14362 -19.17519
 Alpha  occ. eigenvalues --  -19.11238 -19.10633 -19.10385 -15.45630 -15.44200
 Alpha  occ. eigenvalues --  -15.43642 -12.58851 -12.58770 -12.58734 -12.57410
 Alpha  occ. eigenvalues --  -12.57328 -12.57294 -12.56840 -12.56791 -12.56708
 Alpha  occ. eigenvalues --   -6.59672  -4.76102  -4.75963  -4.75394  -1.82848
 Alpha  occ. eigenvalues --   -1.81769  -1.80966  -1.10965  -1.10505  -1.10028
 Alpha  occ. eigenvalues --   -1.09921  -1.09309  -1.09007  -1.08577  -1.08370
 Alpha  occ. eigenvalues --   -1.08272  -1.01670  -0.95171  -0.90131  -0.78788
 Alpha  occ. eigenvalues --   -0.53149  -0.43007  -0.41223  -0.40225  -0.36599
 Alpha  occ. eigenvalues --   -0.34854  -0.31887  -0.29650  -0.26912  -0.26680
 Alpha  occ. eigenvalues --   -0.23407  -0.21757  -0.21086  -0.12256
 Alpha virt. eigenvalues --   -0.08437  -0.07017  -0.03320  -0.01849  -0.00726
 Alpha virt. eigenvalues --   -0.00114   0.00487   0.01289   0.01379   0.02547
 Alpha virt. eigenvalues --    0.04863   0.05337   0.05957   0.07205   0.07951

 Mulliken atomic charges:
              1
     1  O   -0.479310
     2  O   -0.541096
     3  O   -0.867140
     4  O   -0.815482
     5  P    1.042816
     6  Ca   0.680490
     7  Ca   0.312675
     8  Ca   1.067037
     9  H   -0.399991
 Sum of Mulliken charges=   0.00000

 Dipole moment (field-independent basis, Debye):
    X=     3.1682    Y=    -1.6781    Z=    -4.0004  Tot=     5.3718
 Quadrupole moment (field-independent basis, Debye-Ang):
   XX=   -97.4676   YY=   -76.6599   ZZ=  -101.0433
   XY=    -4.9581   XZ=   -18.9020   YZ=     8.8410

 Normal termination of Gaussian 03 at Mon May  4 20:13:47 2015.
