 Gaussian 03, Revision E.01,
 Gaussian 03:  EM64T-G03RevE.01 11-Sep-2007

 -------------------------------------
 # b3lyp/6-31G(d,p) pop=(ReadRadii,MK)
 -------------------------------------

 ---------
 Ca3PO4_79
 ---------
 Symbolic Z-matrix:
 Charge =  0 Multiplicity = 1

                         Standard orientation:
 ---------------------------------------------------------------------
 Center     Atomic     Atomic              Coordinates (Angstroms)
 Number     Number      Type              X           Y           Z
 ---------------------------------------------------------------------
    1          8             0        1.922708   -0.962139   -0.292051
    2          8             0       -0.306417    0.180066    0.280637
    3          8             0        2.919830   -0.031064    0.392481
    4          8             0       -0.194502   -2.347859    0.118664
    5         15             0        0.636164   -1.219011    0.833139
    6         20             0       -1.715036    2.000684    0.457044
    7         20             0       -2.030873   -1.284375   -0.596483
    8         20             0        1.524433    1.309727   -0.663771
    9          1             0        0.154113    3.052420   -0.430730
 ---------------------------------------------------------------------

 SCF Done:  E(RB+HF-LYP) =  -2675.60519361     A.U. after   13 cycles

 The electronic state is 1-A.
 Alpha  occ. eigenvalues -- -145.38910-145.37593-145.35944 -77.12982 -19.15218
 Alpha  occ. eigenvalues --  -19.11224 -19.09608 -19.08263 -15.46045 -15.44762
 Alpha  occ. eigenvalues --  -15.43144 -12.59254 -12.59171 -12.59126 -12.57974
 Alpha  occ. eigenvalues --  -12.57926 -12.57795 -12.56376 -12.56303 -12.56169
 Alpha  occ. eigenvalues --   -6.58275  -4.74669  -4.74596  -4.74003  -1.83393
 Alpha  occ. eigenvalues --   -1.82225  -1.80825  -1.11130  -1.10873  -1.10500
 Alpha  occ. eigenvalues --   -1.09964  -1.09784  -1.09481  -1.09097  -1.08684
 Alpha  occ. eigenvalues --   -1.08275  -0.99422  -0.93220  -0.89083  -0.77075
 Alpha  occ. eigenvalues --   -0.51887  -0.41082  -0.39312  -0.38150  -0.34537
 Alpha  occ. eigenvalues --   -0.33381  -0.31083  -0.28095  -0.27799  -0.26382
 Alpha  occ. eigenvalues --   -0.21433  -0.20083  -0.19943  -0.14529
 Alpha virt. eigenvalues --   -0.08537  -0.05849  -0.04643  -0.03084  -0.01817
 Alpha virt. eigenvalues --   -0.01188   0.00820   0.01777   0.02237   0.03299
 Alpha virt. eigenvalues --    0.04082   0.05317   0.06419   0.07649   0.08269

 Mulliken atomic charges:
              1
     1  O   -0.461541
     2  O   -0.927676
     3  O   -0.490515
     4  O   -0.744993
     5  P    0.982808
     6  Ca   0.526721
     7  Ca   0.509783
     8  Ca   1.016451
     9  H   -0.411039
 Sum of Mulliken charges=   0.00000

 Dipole moment (field-independent basis, Debye):
    X=    -3.2511    Y=     5.3185    Z=    -3.3366  Tot=     7.0703
 Quadrupole moment (field-independent basis, Debye-Ang):
   XX=  -104.1217   YY=   -87.4626   ZZ=   -83.6476
   XY=    16.2954   XZ=   -10.2428   YZ=     4.8516

 Normal termination of Gaussian 03 at Mon May  4 20:13:33 2015.
