 Gaussian 03, Revision E.01,
 Gaussian 03:  EM64T-G03RevE.01 11-Sep-2007

 -------------------------------------
 # b3lyp/6-31G(d,p) pop=(ReadRadii,MK)
 -------------------------------------

 --------
 Ca3PO4_2
 --------
 Symbolic Z-matrix:
 Charge =  0 Multiplicity = 1

                         Standard orientation:
 ---------------------------------------------------------------------
 Center     Atomic     Atomic              Coordinates (Angstroms)
 Number     Number      Type              X           Y           Z
 ---------------------------------------------------------------------
    1          8             0       -1.938492    0.108045   -0.660228
    2          8             0        2.305308   -0.781739    0.797677
    3          8             0        1.791919    0.604515    1.034080
    4          8             0        2.226657   -1.002931   -0.681398
    5         15             0       -2.697373   -1.331077   -0.058830
    6         20             0       -3.767711    1.249734    0.057208
    7         20             0        0.045219   -0.669944    0.117552
    8         20             0        3.722219    0.753023   -0.281785
    9          1             0        5.382920    1.886777   -0.898074
 ---------------------------------------------------------------------

 SCF Done:  E(RB+HF-LYP) =  -2675.47534164     A.U. after   10 cycles

 The electronic state is 1-A.
 Alpha  occ. eigenvalues -- -145.39108-145.36352-145.35053 -77.06189 -19.26080
 Alpha  occ. eigenvalues --  -19.16349 -19.16257 -19.10923 -15.46239 -15.43621
 Alpha  occ. eigenvalues --  -15.42225 -12.59437 -12.59395 -12.59301 -12.56858
 Alpha  occ. eigenvalues --  -12.56802 -12.56596 -12.55439 -12.55409 -12.55265
 Alpha  occ. eigenvalues --   -6.52801  -4.69262  -4.69006  -4.68364  -1.83527
 Alpha  occ. eigenvalues --   -1.81272  -1.79847  -1.14158  -1.11153  -1.10866
 Alpha  occ. eigenvalues --   -1.10853  -1.09284  -1.09005  -1.07784  -1.07659
 Alpha  occ. eigenvalues --   -1.07529  -1.04851  -0.91895  -0.90531  -0.77196
 Alpha  occ. eigenvalues --   -0.50790  -0.46307  -0.45075  -0.44546  -0.33966
 Alpha  occ. eigenvalues --   -0.32370  -0.32137  -0.31474  -0.30066  -0.27378
 Alpha  occ. eigenvalues --   -0.25341  -0.21557  -0.17249  -0.14081
 Alpha virt. eigenvalues --   -0.10400  -0.04532  -0.03251  -0.02896  -0.02339
 Alpha virt. eigenvalues --   -0.02076  -0.01206   0.00251   0.00619   0.01313
 Alpha virt. eigenvalues --    0.02492   0.04479   0.05310   0.05532   0.06894

 Mulliken atomic charges:
              1
     1  O   -0.813560
     2  O   -0.209971
     3  O   -0.516226
     4  O   -0.515206
     5  P   -0.152031
     6  Ca   0.511680
     7  Ca   1.032612
     8  Ca   0.944194
     9  H   -0.281492
 Sum of Mulliken charges=   0.00000

 Dipole moment (field-independent basis, Debye):
    X=    -2.4789    Y=     0.9269    Z=     0.0626  Tot=     2.6473
 Quadrupole moment (field-independent basis, Debye-Ang):
   XX=  -113.3599   YY=   -97.5899   ZZ=   -91.3338
   XY=   -21.9409   XZ=     9.1875   YZ=    -0.4439

 Normal termination of Gaussian 03 at Thu May  7 23:18:46 2015.
