 Gaussian 03, Revision E.01,
 Gaussian 03:  EM64T-G03RevE.01 11-Sep-2007

 -------------------------------------
 # b3lyp/6-31G(d,p) pop=(ReadRadii,MK)
 -------------------------------------

 ---------
 Ca3PO4_93
 ---------
 Symbolic Z-matrix:
 Charge =  0 Multiplicity = 1

                         Standard orientation:
 ---------------------------------------------------------------------
 Center     Atomic     Atomic              Coordinates (Angstroms)
 Number     Number      Type              X           Y           Z
 ---------------------------------------------------------------------
    1          8             0       -0.923828    0.294786    1.167889
    2          8             0       -2.231410   -2.028640   -0.466305
    3          8             0       -1.752760   -0.697853   -1.034521
    4          8             0       -1.630878    1.818720   -0.712436
    5         15             0       -2.227759    0.571336    0.081736
    6         20             0       -0.248933   -1.726821    0.424178
    7         20             0        0.398291    1.840409    0.182420
    8         20             0        3.842001   -0.261822   -0.227573
    9          1             0        5.900240   -0.701474   -0.443596
 ---------------------------------------------------------------------

 SCF Done:  E(RB+HF-LYP) =  -2675.55542709     A.U. after    8 cycles

 The electronic state is 1-A.
 Alpha  occ. eigenvalues -- -145.40262-145.38835-145.37383 -77.11902 -19.14123
 Alpha  occ. eigenvalues --  -19.09109 -19.09076 -19.07549 -15.47553 -15.45967
 Alpha  occ. eigenvalues --  -15.44500 -12.60753 -12.60751 -12.60513 -12.59190
 Alpha  occ. eigenvalues --  -12.59112 -12.59023 -12.57717 -12.57635 -12.57582
 Alpha  occ. eigenvalues --   -6.57186  -4.73564  -4.73503  -4.72943  -1.85076
 Alpha  occ. eigenvalues --   -1.83457  -1.82050  -1.12796  -1.12792  -1.11580
 Alpha  occ. eigenvalues --   -1.11394  -1.11065  -1.10744  -1.10271  -1.09693
 Alpha  occ. eigenvalues --   -1.09385  -0.98448  -0.92128  -0.87695  -0.76111
 Alpha  occ. eigenvalues --   -0.50362  -0.39640  -0.37776  -0.37058  -0.33297
 Alpha  occ. eigenvalues --   -0.32058  -0.28888  -0.26289  -0.25288  -0.23797
 Alpha  occ. eigenvalues --   -0.21372  -0.19508  -0.19210  -0.17633
 Alpha virt. eigenvalues --   -0.11251  -0.07324  -0.06210  -0.04149  -0.03384
 Alpha virt. eigenvalues --   -0.00973   0.00024   0.00220   0.02609   0.02632
 Alpha virt. eigenvalues --    0.04238   0.05514   0.06860   0.07637   0.08617

 Mulliken atomic charges:
              1
     1  O   -0.870551
     2  O   -0.494152
     3  O   -0.472694
     4  O   -0.758298
     5  P    1.005210
     6  Ca   0.987667
     7  Ca   0.909244
     8  Ca  -0.016232
     9  H   -0.290194
 Sum of Mulliken charges=   0.00000

 Dipole moment (field-independent basis, Debye):
    X=     6.3458    Y=     1.3498    Z=     4.0704  Tot=     7.6590
 Quadrupole moment (field-independent basis, Debye-Ang):
   XX=  -148.9733   YY=   -67.2401   ZZ=   -91.2860
   XY=     6.0993   XZ=    -2.4518   YZ=    -4.0023

 Normal termination of Gaussian 03 at Mon May  4 20:13:51 2015.
