 Gaussian 03, Revision E.01,
 Gaussian 03:  EM64T-G03RevE.01 11-Sep-2007

 -------------------------------------
 # b3lyp/6-31G(d,p) pop=(ReadRadii,MK)
 -------------------------------------

 ----------
 Ca3PO4_207
 ----------
 Symbolic Z-matrix:
 Charge =  0 Multiplicity = 1

                         Standard orientation:
 ---------------------------------------------------------------------
 Center     Atomic     Atomic              Coordinates (Angstroms)
 Number     Number      Type              X           Y           Z
 ---------------------------------------------------------------------
    1          8             0        1.779071    1.080139   -0.880198
    2          8             0        2.176211    1.299759    0.499255
    3          8             0       -2.410339    1.411660   -0.443597
    4          8             0        2.517021   -0.000973    1.111970
    5         15             0       -0.340149   -1.469500    0.914562
    6         20             0       -2.834969   -0.644681   -0.117414
    7         20             0        1.723721   -1.275311   -0.885927
    8         20             0       -0.338718    1.522470    0.130109
    9          1             0        1.605851   -0.331751    1.446770
 ---------------------------------------------------------------------

 SCF Done:  E(RB+HF-LYP) =  -2675.44859756     A.U. after   11 cycles

 The electronic state is 1-A.
 Alpha  occ. eigenvalues -- -145.37967-145.34102-145.31707 -76.97106 -19.26565
 Alpha  occ. eigenvalues --  -19.21408 -19.15829 -18.98865 -15.45071 -15.41257
 Alpha  occ. eigenvalues --  -15.38863 -12.58250 -12.58240 -12.58149 -12.54463
 Alpha  occ. eigenvalues --  -12.54429 -12.54281 -12.52081 -12.52050 -12.51882
 Alpha  occ. eigenvalues --   -6.44237  -4.60450  -4.60279  -4.60170  -1.82481
 Alpha  occ. eigenvalues --   -1.78823  -1.76525  -1.14577  -1.10114  -1.09733
 Alpha  occ. eigenvalues --   -1.09272  -1.06657  -1.06416  -1.05705  -1.04462
 Alpha  occ. eigenvalues --   -1.04162  -1.03511  -0.97162  -0.79101  -0.72758
 Alpha  occ. eigenvalues --   -0.53281  -0.47467  -0.45921  -0.44877  -0.37580
 Alpha  occ. eigenvalues --   -0.33216  -0.29617  -0.24859  -0.18996  -0.18116
 Alpha  occ. eigenvalues --   -0.17287  -0.16441  -0.15407  -0.14600
 Alpha virt. eigenvalues --   -0.08282  -0.06656  -0.03489  -0.02267  -0.01575
 Alpha virt. eigenvalues --   -0.00470   0.00338   0.01936   0.02335   0.02737
 Alpha virt. eigenvalues --    0.04362   0.04997   0.05591   0.06704   0.07427

 Mulliken atomic charges:
              1
     1  O   -0.510414
     2  O   -0.104361
     3  O   -0.901803
     4  O   -0.340206
     5  P   -0.950983
     6  Ca   0.777923
     7  Ca   0.764802
     8  Ca   0.954565
     9  H    0.310476
 Sum of Mulliken charges=   0.00000

 Dipole moment (field-independent basis, Debye):
    X=     0.4582    Y=    -2.2688    Z=    -3.6698  Tot=     4.3387
 Quadrupole moment (field-independent basis, Debye-Ang):
   XX=   -70.7333   YY=   -90.4450   ZZ=   -88.0649
   XY=     5.9619   XZ=    -8.9976   YZ=    17.6120

 Normal termination of Gaussian 03 at Mon May  4 20:11:37 2015.
