 Gaussian 03, Revision E.01,
 Gaussian 03:  EM64T-G03RevE.01 11-Sep-2007

 -------------------------------------
 # b3lyp/6-31G(d,p) pop=(ReadRadii,MK)
 -------------------------------------

 ----------
 Ca3PO4_126
 ----------
 Symbolic Z-matrix:
 Charge =  0 Multiplicity = 1

                         Standard orientation:
 ---------------------------------------------------------------------
 Center     Atomic     Atomic              Coordinates (Angstroms)
 Number     Number      Type              X           Y           Z
 ---------------------------------------------------------------------
    1          8             0       -0.788203    1.139649    0.720789
    2          8             0       -0.224643   -1.545990   -0.735064
    3          8             0       -2.048140    0.294164    0.985282
    4          8             0        1.768920   -0.452657    0.424401
    5         15             0        1.385281   -1.263189   -0.969696
    6         20             0       -1.627680    0.276270   -1.288109
    7         20             0        1.267519    1.842401    0.026252
    8         20             0       -0.223565   -0.943374    1.523311
    9          1             0        1.231840   -0.039406   -1.846899
 ---------------------------------------------------------------------

 SCF Done:  E(RB+HF-LYP) =  -2675.65082267     A.U. after   12 cycles

 The electronic state is 1-A.
 Alpha  occ. eigenvalues -- -145.36561-145.36274-145.36005 -77.11549 -19.12601
 Alpha  occ. eigenvalues --  -19.12181 -19.09840 -19.09787 -15.43607 -15.43355
 Alpha  occ. eigenvalues --  -15.43068 -12.56809 -12.56753 -12.56708 -12.56539
 Alpha  occ. eigenvalues --  -12.56532 -12.56443 -12.56272 -12.56213 -12.56173
 Alpha  occ. eigenvalues --   -6.57290  -4.73637  -4.73539  -4.73083  -1.80935
 Alpha  occ. eigenvalues --   -1.80845  -1.80430  -1.09865  -1.08836  -1.08643
 Alpha  occ. eigenvalues --   -1.08502  -1.08330  -1.08051  -1.07944  -1.07791
 Alpha  occ. eigenvalues --   -1.07663  -0.95779  -0.94156  -0.89199  -0.76233
 Alpha  occ. eigenvalues --   -0.54053  -0.40893  -0.38149  -0.37652  -0.35637
 Alpha  occ. eigenvalues --   -0.34757  -0.32849  -0.29495  -0.28987  -0.26469
 Alpha  occ. eigenvalues --   -0.22747  -0.21143  -0.19839  -0.11900
 Alpha virt. eigenvalues --   -0.08279  -0.07765  -0.02651  -0.01836  -0.00125
 Alpha virt. eigenvalues --    0.00003   0.00480   0.01378   0.01721   0.02628
 Alpha virt. eigenvalues --    0.03555   0.05370   0.06427   0.07437   0.07861

 Mulliken atomic charges:
              1
     1  O   -0.618423
     2  O   -0.841590
     3  O   -0.554136
     4  O   -0.835263
     5  P    0.783797
     6  Ca   0.783771
     7  Ca   0.426756
     8  Ca   1.072593
     9  H   -0.217505
 Sum of Mulliken charges=   0.00000

 Dipole moment (field-independent basis, Debye):
    X=    -1.6341    Y=    -2.8278    Z=     3.6597  Tot=     4.9052
 Quadrupole moment (field-independent basis, Debye-Ang):
   XX=   -95.1827   YY=   -97.3463   ZZ=   -82.3505
   XY=     9.4515   XZ=     7.0951   YZ=    -9.1450

 Normal termination of Gaussian 03 at Mon May  4 20:10:11 2015.
