 Gaussian 03, Revision E.01,
 Gaussian 03:  EM64T-G03RevE.01 11-Sep-2007

 -------------------------------------
 # b3lyp/6-31G(d,p) pop=(ReadRadii,MK)
 -------------------------------------

 ----------
 Ca3PO4_146
 ----------
 Symbolic Z-matrix:
 Charge =  0 Multiplicity = 1

                         Standard orientation:
 ---------------------------------------------------------------------
 Center     Atomic     Atomic              Coordinates (Angstroms)
 Number     Number      Type              X           Y           Z
 ---------------------------------------------------------------------
    1          8             0        2.481260   -1.121482    0.799417
    2          8             0        2.566670   -1.058703   -0.767777
    3          8             0        0.434701    1.165969   -0.012051
    4          8             0       -3.293949    0.210866    0.524639
    5         15             0       -2.775380   -1.201568   -0.129604
    6         20             0        2.617422    0.995479    0.103811
    7         20             0        0.382869   -1.196081   -0.103795
    8         20             0       -1.691758    1.517961   -0.169268
    9          1             0       -2.049411   -1.896879    0.975289
 ---------------------------------------------------------------------

 SCF Done:  E(RB+HF-LYP) =  -2675.60238572     A.U. after    9 cycles

 The electronic state is 1-A.
 Alpha  occ. eigenvalues -- -145.34166-145.34137-145.31063 -77.04166 -19.07508
 Alpha  occ. eigenvalues --  -19.07500 -19.04988 -19.03188 -15.41347 -15.41258
 Alpha  occ. eigenvalues --  -15.38235 -12.54579 -12.54552 -12.54446 -12.54420
 Alpha  occ. eigenvalues --  -12.54332 -12.54326 -12.51436 -12.51405 -12.51288
 Alpha  occ. eigenvalues --   -6.50620  -4.66986  -4.66666  -4.66484  -1.79009
 Alpha  occ. eigenvalues --   -1.78896  -1.75922  -1.07302  -1.07001  -1.06952
 Alpha  occ. eigenvalues --   -1.06598  -1.06330  -1.05924  -1.03739  -1.03495
 Alpha  occ. eigenvalues --   -1.03358  -0.89883  -0.86689  -0.77868  -0.71391
 Alpha  occ. eigenvalues --   -0.50801  -0.33706  -0.31140  -0.29554  -0.28734
 Alpha  occ. eigenvalues --   -0.28522  -0.27136  -0.23843  -0.22936  -0.21944
 Alpha  occ. eigenvalues --   -0.18988  -0.17981  -0.16537  -0.12417
 Alpha virt. eigenvalues --   -0.08580  -0.07144  -0.02210  -0.01688  -0.00492
 Alpha virt. eigenvalues --    0.00356   0.00980   0.01904   0.02951   0.03512
 Alpha virt. eigenvalues --    0.05228   0.06622   0.07213   0.09135   0.09799

 Mulliken atomic charges:
              1
     1  O   -0.583536
     2  O   -0.583193
     3  O   -0.955392
     4  O   -0.766356
     5  P    0.079884
     6  Ca   1.205253
     7  Ca   0.800767
     8  Ca   0.984034
     9  H   -0.181461
 Sum of Mulliken charges=   0.00000

 Dipole moment (field-independent basis, Debye):
    X=     4.6991    Y=     9.6398    Z=    -1.0724  Tot=    10.7777
 Quadrupole moment (field-independent basis, Debye-Ang):
   XX=  -100.0435   YY=   -67.9684   ZZ=   -84.0629
   XY=     6.5566   XZ=     5.6523   YZ=    -0.8598

 Normal termination of Gaussian 03 at Mon May  4 20:10:11 2015.
