 Gaussian 03, Revision E.01,
 Gaussian 03:  EM64T-G03RevE.01 11-Sep-2007

 -------------------------------------
 # b3lyp/6-31G(d,p) pop=(ReadRadii,MK)
 -------------------------------------

 ---------
 Ca3PO4_44
 ---------
 Symbolic Z-matrix:
 Charge =  0 Multiplicity = 1

                         Standard orientation:
 ---------------------------------------------------------------------
 Center     Atomic     Atomic              Coordinates (Angstroms)
 Number     Number      Type              X           Y           Z
 ---------------------------------------------------------------------
    1          8             0        2.866372   -0.033942   -0.017343
    2          8             0       -5.467518    0.246699   -0.678142
    3          8             0        1.933502   -2.325331    0.083794
    4          8             0       -5.361958    0.632629    0.787691
    5         15             0        3.252362   -1.549961    0.051208
    6         20             0        3.246843    2.335219   -0.031869
    7         20             0       -3.357738   -0.163894   -0.108748
    8         20             0        0.372115   -0.492185   -0.006759
    9          1             0       -5.773017    1.506181    0.771407
 ---------------------------------------------------------------------

 SCF Done:  E(RB+HF-LYP) =  -2675.56321020     A.U. after   15 cycles

 The electronic state is 1-A.
 Alpha  occ. eigenvalues -- -145.39810-145.37498-145.36773 -77.19139 -19.17925
 Alpha  occ. eigenvalues --  -19.17454 -19.16631 -19.10386 -15.46951 -15.44662
 Alpha  occ. eigenvalues --  -15.44025 -12.60170 -12.60104 -12.59998 -12.57811
 Alpha  occ. eigenvalues --  -12.57810 -12.57737 -12.57241 -12.57204 -12.57015
 Alpha  occ. eigenvalues --   -6.64973  -4.81407  -4.81157  -4.80747  -1.84306
 Alpha  occ. eigenvalues --   -1.81935  -1.81600  -1.12035  -1.11750  -1.11648
 Alpha  occ. eigenvalues --   -1.09687  -1.09414  -1.09344  -1.09292  -1.09248
 Alpha  occ. eigenvalues --   -1.09092  -1.03485  -1.02024  -0.97602  -0.79161
 Alpha  occ. eigenvalues --   -0.56557  -0.47812  -0.45314  -0.43207  -0.42282
 Alpha  occ. eigenvalues --   -0.37801  -0.35444  -0.34312  -0.33446  -0.30873
 Alpha  occ. eigenvalues --   -0.23210  -0.20216  -0.17524  -0.13648
 Alpha virt. eigenvalues --   -0.09424  -0.06395  -0.05583  -0.04421  -0.03119
 Alpha virt. eigenvalues --   -0.02569  -0.01432  -0.00289   0.00253   0.02275
 Alpha virt. eigenvalues --    0.03870   0.04651   0.05532   0.06359   0.06477

 Mulliken atomic charges:
              1
     1  O   -0.702606
     2  O   -0.516519
     3  O   -0.624495
     4  O   -0.438887
     5  P    0.798328
     6  Ca   0.044122
     7  Ca   0.725660
     8  Ca   0.370152
     9  H    0.344245
 Sum of Mulliken charges=   0.00000

 Dipole moment (field-independent basis, Debye):
    X=     2.3967    Y=    -1.4350    Z=     0.8378  Tot=     2.9163
 Quadrupole moment (field-independent basis, Debye-Ang):
   XX=  -121.5718   YY=  -106.5049   ZZ=   -94.0192
   XY=    -9.7067   XZ=    -6.3137   YZ=     1.9187

 Normal termination of Gaussian 03 at Mon May  4 20:12:31 2015.
