 Gaussian 03, Revision E.01,
 Gaussian 03:  EM64T-G03RevE.01 11-Sep-2007

 -------------------------------------
 # b3lyp/6-31G(d,p) pop=(ReadRadii,MK)
 -------------------------------------

 ----------
 Ca3PO4_180
 ----------
 Symbolic Z-matrix:
 Charge =  0 Multiplicity = 1

                         Standard orientation:
 ---------------------------------------------------------------------
 Center     Atomic     Atomic              Coordinates (Angstroms)
 Number     Number      Type              X           Y           Z
 ---------------------------------------------------------------------
    1          8             0        0.003040    0.007523   -1.671720
    2          8             0        0.718252   -1.257343    1.009270
    3          8             0        0.712008    1.250297    1.021140
    4          8             0       -1.631059   -0.008398    0.910309
    5         15             0        0.161320   -0.008607    1.832020
    6         20             0        1.979570    0.007877   -0.644651
    7         20             0       -0.948648   -1.739154   -0.665315
    8         20             0       -0.956787    1.741586   -0.651187
    9          1             0       -2.320439   -0.013706    1.590780
 ---------------------------------------------------------------------

 SCF Done:  E(RB+HF-LYP) =  -2675.77723255     A.U. after   11 cycles

 The electronic state is 1-A.
 Alpha  occ. eigenvalues -- -145.35176-145.35088-145.35086 -77.15658 -19.16423
 Alpha  occ. eigenvalues --  -19.11394 -19.11381 -19.03069 -15.42262 -15.42185
 Alpha  occ. eigenvalues --  -15.42182 -12.55463 -12.55395 -12.55381 -12.55378
 Alpha  occ. eigenvalues --  -12.55367 -12.55322 -12.55319 -12.55288 -12.55285
 Alpha  occ. eigenvalues --   -6.61018  -4.77537  -4.77239  -4.76727  -1.79732
 Alpha  occ. eigenvalues --   -1.79640  -1.79615  -1.08177  -1.07675  -1.07639
 Alpha  occ. eigenvalues --   -1.07367  -1.07210  -1.07090  -1.07065  -1.06565
 Alpha  occ. eigenvalues --   -1.06544  -0.99373  -0.96296  -0.91804  -0.78054
 Alpha  occ. eigenvalues --   -0.54437  -0.48662  -0.41044  -0.40445  -0.36949
 Alpha  occ. eigenvalues --   -0.35501  -0.32445  -0.29603  -0.28109  -0.24394
 Alpha  occ. eigenvalues --   -0.23495  -0.23391  -0.21037  -0.11284
 Alpha virt. eigenvalues --   -0.07511  -0.07504  -0.03032  -0.02145  -0.00955
 Alpha virt. eigenvalues --   -0.00086   0.00222   0.01233   0.01763   0.02605
 Alpha virt. eigenvalues --    0.03870   0.04185   0.06341   0.07577   0.10306

 Mulliken atomic charges:
              1
     1  O   -0.918722
     2  O   -0.791120
     3  O   -0.790716
     4  O   -0.774978
     5  P    0.963234
     6  Ca   0.658383
     7  Ca   0.663704
     8  Ca   0.663976
     9  H    0.326239
 Sum of Mulliken charges=   0.00000

 Dipole moment (field-independent basis, Debye):
    X=    -0.9470    Y=     0.0161    Z=     0.5973  Tot=     1.1197
 Quadrupole moment (field-independent basis, Debye-Ang):
   XX=   -84.7113   YY=   -92.1690   ZZ=  -103.6778
   XY=     0.0179   XZ=    -4.9522   YZ=     0.0243

 Normal termination of Gaussian 03 at Mon May  4 20:11:16 2015.
