 Gaussian 03, Revision E.01,
 Gaussian 03:  EM64T-G03RevE.01 11-Sep-2007

 -------------------------------------
 # b3lyp/6-31G(d,p) pop=(ReadRadii,MK)
 -------------------------------------

 ----------
 Ca3PO4_218
 ----------
 Symbolic Z-matrix:
 Charge =  0 Multiplicity = 1

                         Standard orientation:
 ---------------------------------------------------------------------
 Center     Atomic     Atomic              Coordinates (Angstroms)
 Number     Number      Type              X           Y           Z
 ---------------------------------------------------------------------
    1          8             0        2.616620   -0.000613   -1.242951
    2          8             0        4.971020    0.000707   -0.000047
    3          8             0        2.616680   -0.000138    1.242999
    4          8             0       -3.937720    0.000302   -0.000005
    5         15             0        3.497930   -0.000076    0.000008
    6         20             0        0.566858   -0.000309   -0.000008
    7         20             0       -2.725622    1.936818   -0.000060
    8         20             0       -2.726129   -1.936572    0.000061
    9          1             0       -4.903860    0.000343    0.000000
 ---------------------------------------------------------------------

 SCF Done:  E(RB+HF-LYP) =  -2675.68479752     A.U. after    6 cycles

 The electronic state is 1-A.
 Alpha  occ. eigenvalues -- -145.39180-145.37763-145.37763 -77.20857 -19.15095
 Alpha  occ. eigenvalues --  -19.15094 -19.13825 -19.11395 -15.46301 -15.44959
 Alpha  occ. eigenvalues --  -15.44959 -12.59489 -12.59480 -12.59372 -12.58138
 Alpha  occ. eigenvalues --  -12.58137 -12.58134 -12.58133 -12.57985 -12.57984
 Alpha  occ. eigenvalues --   -6.66373  -4.82967  -4.82469  -4.82425  -1.83660
 Alpha  occ. eigenvalues --   -1.82383  -1.82371  -1.11376  -1.11235  -1.11182
 Alpha  occ. eigenvalues --   -1.09989  -1.09972  -1.09957  -1.09860  -1.09687
 Alpha  occ. eigenvalues --   -1.09263  -1.04043  -0.96753  -0.96304  -0.93043
 Alpha  occ. eigenvalues --   -0.51984  -0.44591  -0.43616  -0.42564  -0.42243
 Alpha  occ. eigenvalues --   -0.36247  -0.33009  -0.32277  -0.31899  -0.31804
 Alpha  occ. eigenvalues --   -0.29337  -0.28812  -0.18870  -0.13636
 Alpha virt. eigenvalues --   -0.08675  -0.05542  -0.04760  -0.04664  -0.02978
 Alpha virt. eigenvalues --   -0.02940  -0.00261   0.00384   0.00790   0.00792
 Alpha virt. eigenvalues --    0.02140   0.02320   0.06747   0.07819   0.08322

 Mulliken atomic charges:
              1
     1  O   -0.645806
     2  O   -0.484907
     3  O   -0.645792
     4  O   -0.842683
     5  P    1.147366
     6  Ca   0.524440
     7  Ca   0.328659
     8  Ca   0.328648
     9  H    0.290074
 Sum of Mulliken charges=   0.00000

 Dipole moment (field-independent basis, Debye):
    X=    -9.4904    Y=    -0.0006    Z=     0.0000  Tot=     9.4904
 Quadrupole moment (field-independent basis, Debye-Ang):
   XX=   -99.7497   YY=   -96.2304   ZZ=   -99.9414
   XY=    -0.0095   XZ=     0.0001   YZ=    -0.0015

 Normal termination of Gaussian 03 at Mon May  4 20:41:39 2015.
