 Gaussian 03, Revision E.01,
 Gaussian 03:  EM64T-G03RevE.01 11-Sep-2007

 -------------------------------------
 # b3lyp/6-31G(d,p) pop=(ReadRadii,MK)
 -------------------------------------

 ---------
 Ca3PO4_69
 ---------
 Symbolic Z-matrix:
 Charge =  0 Multiplicity = 1

                         Standard orientation:
 ---------------------------------------------------------------------
 Center     Atomic     Atomic              Coordinates (Angstroms)
 Number     Number      Type              X           Y           Z
 ---------------------------------------------------------------------
    1          8             0       -0.664921   -0.581633    1.329990
    2          8             0        1.008620   -0.085782   -1.090400
    3          8             0        1.357617   -1.571893   -0.927005
    4          8             0       -2.559171    0.208021   -0.332853
    5         15             0       -1.519134    0.829384    1.094580
    6         20             0        0.829243    2.130774   -0.674272
    7         20             0       -0.894677   -1.326903   -0.888170
    8         20             0        1.719563   -0.614924    1.147890
    9          1             0       -3.432730    0.030606    0.034454
 ---------------------------------------------------------------------

 SCF Done:  E(RB+HF-LYP) =  -2675.59072546     A.U. after   14 cycles

 The electronic state is 1-A.
 Alpha  occ. eigenvalues -- -145.36911-145.35897-145.35058 -77.08497 -19.15937
 Alpha  occ. eigenvalues --  -19.12593 -19.11990 -19.09776 -15.43999 -15.43025
 Alpha  occ. eigenvalues --  -15.42145 -12.57191 -12.57120 -12.57111 -12.56230
 Alpha  occ. eigenvalues --  -12.56202 -12.56080 -12.55352 -12.55283 -12.55243
 Alpha  occ. eigenvalues --   -6.54581  -4.71183  -4.70720  -4.70137  -1.81278
 Alpha  occ. eigenvalues --   -1.80642  -1.79535  -1.09510  -1.08846  -1.08592
 Alpha  occ. eigenvalues --   -1.08524  -1.08404  -1.08389  -1.07267  -1.06934
 Alpha  occ. eigenvalues --   -1.06835  -0.98772  -0.95721  -0.90566  -0.76055
 Alpha  occ. eigenvalues --   -0.54505  -0.46131  -0.38103  -0.37766  -0.36045
 Alpha  occ. eigenvalues --   -0.34657  -0.34322  -0.30145  -0.29606  -0.26897
 Alpha  occ. eigenvalues --   -0.22565  -0.21061  -0.14678  -0.11265
 Alpha virt. eigenvalues --   -0.08077  -0.07314  -0.03006  -0.02160  -0.00850
 Alpha virt. eigenvalues --   -0.00242   0.00184   0.01269   0.02047   0.02906
 Alpha virt. eigenvalues --    0.03045   0.04640   0.05553   0.07145   0.07855

 Mulliken atomic charges:
              1
     1  O   -0.812965
     2  O   -0.618300
     3  O   -0.542875
     4  O   -0.720977
     5  P    0.302116
     6  Ca   0.304085
     7  Ca   0.999700
     8  Ca   0.750470
     9  H    0.338746
 Sum of Mulliken charges=   0.00000

 Dipole moment (field-independent basis, Debye):
    X=    -4.1225    Y=    -3.5587    Z=    -2.8285  Tot=     6.1368
 Quadrupole moment (field-independent basis, Debye-Ang):
   XX=   -96.4545   YY=   -83.4298   ZZ=   -95.9912
   XY=     5.7453   XZ=     9.6525   YZ=    -3.3075

 Normal termination of Gaussian 03 at Mon May  4 20:13:30 2015.
