 Gaussian 03, Revision E.01,
 Gaussian 03:  EM64T-G03RevE.01 11-Sep-2007

 -------------------------------------
 # b3lyp/6-31G(d,p) pop=(ReadRadii,MK)
 -------------------------------------

 ----------
 Ca3PO4_140
 ----------
 Symbolic Z-matrix:
 Charge =  0 Multiplicity = 1

                         Standard orientation:
 ---------------------------------------------------------------------
 Center     Atomic     Atomic              Coordinates (Angstroms)
 Number     Number      Type              X           Y           Z
 ---------------------------------------------------------------------
    1          8             0        1.316661    0.391256    0.958603
    2          8             0       -1.461848   -2.016311    0.101712
    3          8             0        2.388621   -0.918206   -0.952504
    4          8             0       -2.033380    1.673529   -0.211489
    5         15             0        2.425711    0.511430   -0.276554
    6         20             0        0.654979   -1.791890    0.287174
    7         20             0       -2.760079   -0.347184   -0.189198
    8         20             0        0.018039    2.075940    0.128275
    9          1             0        3.675131    0.549095    0.452720
 ---------------------------------------------------------------------

 SCF Done:  E(RB+HF-LYP) =  -2675.71793792     A.U. after   10 cycles

 The electronic state is 1-A.
 Alpha  occ. eigenvalues -- -145.33609-145.30484-145.30091 -77.09984 -19.08539
 Alpha  occ. eigenvalues --  -19.06422 -18.99529 -18.98571 -15.40791 -15.37731
 Alpha  occ. eigenvalues --  -15.37358 -12.54025 -12.53967 -12.53794 -12.50962
 Alpha  occ. eigenvalues --  -12.50916 -12.50713 -12.50589 -12.50547 -12.50316
 Alpha  occ. eigenvalues --   -6.55846  -4.72254  -4.72094  -4.71697  -1.78450
 Alpha  occ. eigenvalues --   -1.75532  -1.75217  -1.06521  -1.06241  -1.05531
 Alpha  occ. eigenvalues --   -1.03792  -1.03373  -1.03349  -1.03180  -1.02761
 Alpha  occ. eigenvalues --   -1.01959  -0.92278  -0.87271  -0.73555  -0.72372
 Alpha  occ. eigenvalues --   -0.52063  -0.38106  -0.35450  -0.34323  -0.27619
 Alpha  occ. eigenvalues --   -0.25931  -0.24464  -0.20178  -0.18184  -0.17958
 Alpha  occ. eigenvalues --   -0.17777  -0.17196  -0.16754  -0.16587
 Alpha virt. eigenvalues --   -0.06265  -0.04997  -0.03237   0.00313   0.01059
 Alpha virt. eigenvalues --    0.01163   0.02415   0.03029   0.03661   0.03874
 Alpha virt. eigenvalues --    0.04703   0.06105   0.07221   0.08854   0.10102

 Mulliken atomic charges:
              1
     1  O   -0.830463
     2  O   -0.919485
     3  O   -0.732657
     4  O   -0.916134
     5  P    0.637392
     6  Ca   1.005591
     7  Ca   0.931175
     8  Ca   0.954634
     9  H   -0.130053
 Sum of Mulliken charges=   0.00000

 Dipole moment (field-independent basis, Debye):
    X=    -2.9750    Y=     1.7189    Z=     2.2347  Tot=     4.0987
 Quadrupole moment (field-independent basis, Debye-Ang):
   XX=   -80.7825   YY=   -72.4602   ZZ=   -82.9830
   XY=     3.7987   XZ=     6.9001   YZ=    -0.7490

 Normal termination of Gaussian 03 at Mon May  4 20:10:09 2015.
