 Gaussian 03, Revision E.01,
 Gaussian 03:  EM64T-G03RevE.01 11-Sep-2007

 -------------------------------------
 # b3lyp/6-31G(d,p) pop=(ReadRadii,MK)
 -------------------------------------

 ----------
 Ca3PO4_214
 ----------
 Symbolic Z-matrix:
 Charge =  0 Multiplicity = 1

                         Standard orientation:
 ---------------------------------------------------------------------
 Center     Atomic     Atomic              Coordinates (Angstroms)
 Number     Number      Type              X           Y           Z
 ---------------------------------------------------------------------
    1          8             0       -1.749860   -1.350611   -0.119491
    2          8             0       -4.032341   -0.077219   -0.146783
    3          8             0       -1.746021    1.220999   -0.135394
    4          8             0        1.378049    0.131995    0.653051
    5         15             0       -2.556701   -0.058411   -0.137111
    6         20             0        0.439077    2.038679    0.140556
    7         20             0        3.342659   -0.046498   -0.339761
    8         20             0        0.473542   -1.800251    0.231526
    9          1             0        2.446320   -2.363750   -0.600813
 ---------------------------------------------------------------------

 SCF Done:  E(RB+HF-LYP) =  -2675.71708178     A.U. after   10 cycles

 The electronic state is 1-A.
 Alpha  occ. eigenvalues -- -145.36145-145.36010-145.35240 -77.22275 -19.16431
 Alpha  occ. eigenvalues --  -19.15995 -19.14169 -19.04003 -15.43330 -15.43146
 Alpha  occ. eigenvalues --  -15.42388 -12.56578 -12.56437 -12.56391 -12.56354
 Alpha  occ. eigenvalues --  -12.56286 -12.56212 -12.55606 -12.55513 -12.55462
 Alpha  occ. eigenvalues --   -6.67584  -4.84192  -4.83721  -4.83629  -1.80965
 Alpha  occ. eigenvalues --   -1.80532  -1.79854  -1.09085  -1.08699  -1.08429
 Alpha  occ. eigenvalues --   -1.08255  -1.07883  -1.07668  -1.07572  -1.07516
 Alpha  occ. eigenvalues --   -1.06951  -1.04605  -0.97709  -0.96936  -0.79435
 Alpha  occ. eigenvalues --   -0.54124  -0.46165  -0.43339  -0.42730  -0.36732
 Alpha  occ. eigenvalues --   -0.34570  -0.34244  -0.32144  -0.29229  -0.26908
 Alpha  occ. eigenvalues --   -0.25216  -0.24088  -0.23188  -0.12310
 Alpha virt. eigenvalues --   -0.07758  -0.06068  -0.03911  -0.03396  -0.01399
 Alpha virt. eigenvalues --   -0.01033  -0.00831  -0.00609   0.00768   0.02464
 Alpha virt. eigenvalues --    0.02968   0.03045   0.04819   0.06211   0.09576

 Mulliken atomic charges:
              1
     1  O   -0.669076
     2  O   -0.489777
     3  O   -0.633554
     4  O   -0.945845
     5  P    1.122360
     6  Ca   0.568456
     7  Ca   0.502576
     8  Ca   0.949721
     9  H   -0.404862
 Sum of Mulliken charges=   0.00000

 Dipole moment (field-independent basis, Debye):
    X=     2.1813    Y=    -3.5087    Z=     2.2068  Tot=     4.6839
 Quadrupole moment (field-independent basis, Debye-Ang):
   XX=  -116.2165   YY=   -87.0371   ZZ=   -88.7474
   XY=    -6.0103   XZ=     1.5999   YZ=    -1.7362

 Normal termination of Gaussian 03 at Mon May  4 20:11:45 2015.
