 Gaussian 03, Revision E.01,
 Gaussian 03:  EM64T-G03RevE.01 11-Sep-2007

 -------------------------------------
 # b3lyp/6-31G(d,p) pop=(ReadRadii,MK)
 -------------------------------------

 ---------
 Ca3PO4_61
 ---------
 Symbolic Z-matrix:
 Charge =  0 Multiplicity = 1

                         Standard orientation:
 ---------------------------------------------------------------------
 Center     Atomic     Atomic              Coordinates (Angstroms)
 Number     Number      Type              X           Y           Z
 ---------------------------------------------------------------------
    1          8             0        0.024195   -1.248010    0.649083
    2          8             0       -3.749340   -0.216296   -0.970129
    3          8             0        2.217820    0.083556    0.720324
    4          8             0       -3.934740    0.398701    0.409628
    5         15             0        0.749808    0.001047    1.496100
    6         20             0       -1.704200    0.090432   -0.152338
    7         20             0        1.717990    1.969081   -0.561886
    8         20             0        1.830331   -1.657549   -0.770713
    9          1             0       -4.593020   -0.198594    0.786011
 ---------------------------------------------------------------------

 SCF Done:  E(RB+HF-LYP) =  -2675.57033698     A.U. after   10 cycles

 The electronic state is 1-A.
 Alpha  occ. eigenvalues -- -145.38624-145.38235-145.34827 -77.10981 -19.17518
 Alpha  occ. eigenvalues --  -19.11227 -19.11100 -19.09927 -15.45766 -15.45362
 Alpha  occ. eigenvalues --  -15.42019 -12.58956 -12.58907 -12.58840 -12.58568
 Alpha  occ. eigenvalues --  -12.58508 -12.58427 -12.55240 -12.55203 -12.55044
 Alpha  occ. eigenvalues --   -6.56941  -4.73342  -4.72980  -4.72860  -1.83125
 Alpha  occ. eigenvalues --   -1.82740  -1.79636  -1.10828  -1.10560  -1.10461
 Alpha  occ. eigenvalues --   -1.10356  -1.10133  -1.10037  -1.08272  -1.07447
 Alpha  occ. eigenvalues --   -1.07337  -1.01308  -0.94739  -0.90205  -0.78696
 Alpha  occ. eigenvalues --   -0.52057  -0.47351  -0.38795  -0.37702  -0.37181
 Alpha  occ. eigenvalues --   -0.36064  -0.34882  -0.30535  -0.28146  -0.27050
 Alpha  occ. eigenvalues --   -0.22617  -0.19721  -0.15668  -0.13605
 Alpha virt. eigenvalues --   -0.09454  -0.06498  -0.04254  -0.02347  -0.01497
 Alpha virt. eigenvalues --   -0.01246  -0.01019   0.00458   0.01618   0.02660
 Alpha virt. eigenvalues --    0.03733   0.05516   0.06082   0.07986   0.08096

 Mulliken atomic charges:
              1
     1  O   -0.824313
     2  O   -0.514497
     3  O   -0.804036
     4  O   -0.439185
     5  P    0.436129
     6  Ca   1.010406
     7  Ca   0.278874
     8  Ca   0.511252
     9  H    0.345370
 Sum of Mulliken charges=   0.00000

 Dipole moment (field-independent basis, Debye):
    X=     4.0820    Y=    -0.4307    Z=     0.6998  Tot=     4.1639
 Quadrupole moment (field-independent basis, Debye-Ang):
   XX=   -99.9115   YY=   -79.1426   ZZ=  -103.4094
   XY=     3.2674   XZ=   -11.0261   YZ=     1.0629

 Normal termination of Gaussian 03 at Mon May  4 20:12:57 2015.
