 Gaussian 03, Revision E.01,
 Gaussian 03:  EM64T-G03RevE.01 11-Sep-2007

 -------------------------------------
 # b3lyp/6-31G(d,p) pop=(ReadRadii,MK)
 -------------------------------------

 ---------
 Ca3PO4_24
 ---------
 Symbolic Z-matrix:
 Charge =  0 Multiplicity = 1

                         Standard orientation:
 ---------------------------------------------------------------------
 Center     Atomic     Atomic              Coordinates (Angstroms)
 Number     Number      Type              X           Y           Z
 ---------------------------------------------------------------------
    1          8             0       -1.593621   -1.016930   -0.759756
    2          8             0        1.961290   -0.062596   -1.152979
    3          8             0        2.543250   -0.556886    0.212141
    4          8             0       -0.390385    0.263497    1.025421
    5         15             0       -1.749590   -0.861061    0.976713
    6         20             0        0.594280   -1.626642   -0.272858
    7         20             0       -1.758079    1.266080   -0.632604
    8         20             0        1.472901    1.415918    0.470720
    9          1             0       -0.102450    2.792119   -0.554420
 ---------------------------------------------------------------------

 SCF Done:  E(RB+HF-LYP) =  -2675.62689506     A.U. after    7 cycles

 The electronic state is 1-A.
 Alpha  occ. eigenvalues -- -145.36142-145.33484-145.32028 -77.04980 -19.07920
 Alpha  occ. eigenvalues --  -19.07791 -19.06774 -19.05455 -15.43233 -15.40582
 Alpha  occ. eigenvalues --  -15.39136 -12.56436 -12.56410 -12.56302 -12.53793
 Alpha  occ. eigenvalues --  -12.53744 -12.53657 -12.52360 -12.52307 -12.52189
 Alpha  occ. eigenvalues --   -6.51183  -4.67667  -4.67386  -4.66812  -1.80677
 Alpha  occ. eigenvalues --   -1.78152  -1.76747  -1.08601  -1.08331  -1.07756
 Alpha  occ. eigenvalues --   -1.06696  -1.05836  -1.05588  -1.04672  -1.04386
 Alpha  occ. eigenvalues --   -1.04088  -0.90418  -0.88005  -0.83565  -0.71565
 Alpha  occ. eigenvalues --   -0.48136  -0.32905  -0.31742  -0.31515  -0.31016
 Alpha  occ. eigenvalues --   -0.29718  -0.28617  -0.26169  -0.25102  -0.22641
 Alpha  occ. eigenvalues --   -0.21470  -0.18322  -0.16816  -0.11199
 Alpha virt. eigenvalues --   -0.06678  -0.05078  -0.03676  -0.01123   0.00938
 Alpha virt. eigenvalues --    0.01630   0.01925   0.03282   0.04090   0.04649
 Alpha virt. eigenvalues --    0.05267   0.06439   0.07054   0.07992   0.09653

 Mulliken atomic charges:
              1
     1  O   -0.847810
     2  O   -0.584102
     3  O   -0.590782
     4  O   -0.887602
     5  P    0.260099
     6  Ca   1.040083
     7  Ca   0.848950
     8  Ca   1.171678
     9  H   -0.410513
 Sum of Mulliken charges=   0.00000

 Dipole moment (field-independent basis, Debye):
    X=     0.2120    Y=     3.2064    Z=    -0.9331  Tot=     3.3461
 Quadrupole moment (field-independent basis, Debye-Ang):
   XX=   -92.3850   YY=   -66.9201   ZZ=   -84.8825
   XY=    -5.3358   XZ=    17.0671   YZ=     6.2128

 Normal termination of Gaussian 03 at Mon May  4 20:11:57 2015.
