 Gaussian 03, Revision E.01,
 Gaussian 03:  EM64T-G03RevE.01 11-Sep-2007

 -------------------------------------
 # b3lyp/6-31G(d,p) pop=(ReadRadii,MK)
 -------------------------------------

 ----------
 Ca3PO4_138
 ----------
 Symbolic Z-matrix:
 Charge =  0 Multiplicity = 1

                         Standard orientation:
 ---------------------------------------------------------------------
 Center     Atomic     Atomic              Coordinates (Angstroms)
 Number     Number      Type              X           Y           Z
 ---------------------------------------------------------------------
    1          8             0       -0.180192    0.983951   -0.849149
    2          8             0       -0.325033    1.966650    0.356677
    3          8             0       -2.278562   -1.347369   -0.508834
    4          8             0       -1.901992   -1.149879    0.999437
    5         15             0        2.851858   -1.172883    0.244883
    6         20             0        1.866110    1.465288    0.027162
    7         20             0       -0.018965   -1.540150   -0.201622
    8         20             0       -2.264930    0.825718    0.050781
    9          1             0        3.064058   -1.050703   -1.184700
 ---------------------------------------------------------------------

 SCF Done:  E(RB+HF-LYP) =  -2675.55284361     A.U. after    7 cycles

 The electronic state is 1-A.
 Alpha  occ. eigenvalues -- -145.35428-145.34327-145.32124 -76.97507 -19.12241
 Alpha  occ. eigenvalues --  -19.12028 -19.08435 -19.08232 -15.42605 -15.41456
 Alpha  occ. eigenvalues --  -15.39297 -12.55815 -12.55773 -12.55633 -12.54654
 Alpha  occ. eigenvalues --  -12.54633 -12.54515 -12.52514 -12.52496 -12.52307
 Alpha  occ. eigenvalues --   -6.44695  -4.60954  -4.60729  -4.60557  -1.80164
 Alpha  occ. eigenvalues --   -1.79128  -1.76909  -1.08552  -1.07919  -1.07602
 Alpha  occ. eigenvalues --   -1.07420  -1.06831  -1.06673  -1.04789  -1.04668
 Alpha  occ. eigenvalues --   -1.04084  -0.94733  -0.90789  -0.76008  -0.72172
 Alpha  occ. eigenvalues --   -0.50294  -0.36226  -0.34851  -0.33377  -0.31941
 Alpha  occ. eigenvalues --   -0.30354  -0.28956  -0.25949  -0.23793  -0.20516
 Alpha  occ. eigenvalues --   -0.18962  -0.17342  -0.15835  -0.15023
 Alpha virt. eigenvalues --   -0.07319  -0.06426  -0.02999  -0.01456  -0.00151
 Alpha virt. eigenvalues --    0.01469   0.01886   0.02470   0.02674   0.04049
 Alpha virt. eigenvalues --    0.04399   0.06037   0.06902   0.08102   0.08704

 Mulliken atomic charges:
              1
     1  O   -0.610482
     2  O   -0.593131
     3  O   -0.585361
     4  O   -0.591800
     5  P   -0.644958
     6  Ca   0.901748
     7  Ca   0.875546
     8  Ca   1.324096
     9  H   -0.075657
 Sum of Mulliken charges=   0.00000

 Dipole moment (field-independent basis, Debye):
    X=    -5.4160    Y=     8.6049    Z=    -1.9841  Tot=    10.3593
 Quadrupole moment (field-independent basis, Debye-Ang):
   XX=   -92.2495   YY=   -76.3448   ZZ=   -84.0933
   XY=     1.5948   XZ=    -2.4740   YZ=     5.5326

 Normal termination of Gaussian 03 at Mon May  4 20:09:57 2015.
