 Gaussian 03, Revision E.01,
 Gaussian 03:  EM64T-G03RevE.01 11-Sep-2007

 -------------------------------------
 # b3lyp/6-31G(d,p) pop=(ReadRadii,MK)
 -------------------------------------

 ---------
 Ca3PO4_81
 ---------
 Symbolic Z-matrix:
 Charge =  0 Multiplicity = 1

                         Standard orientation:
 ---------------------------------------------------------------------
 Center     Atomic     Atomic              Coordinates (Angstroms)
 Number     Number      Type              X           Y           Z
 ---------------------------------------------------------------------
    1          8             0        2.459180    0.990273   -0.320111
    2          8             0        1.830800   -1.483430   -0.049108
    3          8             0       -2.210180   -1.497850   -0.814833
    4          8             0       -0.831905    0.467005    1.124370
    5         15             0        2.945550   -0.474031   -0.337564
    6         20             0        0.426188    1.946270    0.182488
    7         20             0       -0.469857   -1.663520    0.462248
    8         20             0       -2.595940    0.558810   -0.314708
    9          1             0       -1.374250    2.471280   -1.059640
 ---------------------------------------------------------------------

 SCF Done:  E(RB+HF-LYP) =  -2675.74560741     A.U. after   10 cycles

 The electronic state is 1-A.
 Alpha  occ. eigenvalues -- -145.34265-145.30370-145.29342 -77.15795 -19.13983
 Alpha  occ. eigenvalues --  -19.13717 -19.00968 -18.96684 -15.41441 -15.37535
 Alpha  occ. eigenvalues --  -15.36535 -12.54681 -12.54551 -12.54505 -12.50758
 Alpha  occ. eigenvalues --  -12.50675 -12.50581 -12.49766 -12.49663 -12.49582
 Alpha  occ. eigenvalues --   -6.61507  -4.77945  -4.77708  -4.77294  -1.79082
 Alpha  occ. eigenvalues --   -1.75229  -1.74295  -1.07192  -1.06572  -1.06389
 Alpha  occ. eigenvalues --   -1.03296  -1.02964  -1.02601  -1.02368  -1.01669
 Alpha  occ. eigenvalues --   -1.01488  -0.99513  -0.94510  -0.75848  -0.70410
 Alpha  occ. eigenvalues --   -0.53359  -0.42796  -0.38950  -0.38763  -0.31505
 Alpha  occ. eigenvalues --   -0.30058  -0.26845  -0.25020  -0.21540  -0.20797
 Alpha  occ. eigenvalues --   -0.20009  -0.15988  -0.14503  -0.14265
 Alpha virt. eigenvalues --   -0.05771  -0.05280  -0.04512  -0.03007   0.00304
 Alpha virt. eigenvalues --    0.01084   0.01852   0.02736   0.03642   0.04141
 Alpha virt. eigenvalues --    0.04560   0.05685   0.06984   0.07914   0.10364

 Mulliken atomic charges:
              1
     1  O   -0.675573
     2  O   -0.644883
     3  O   -0.888873
     4  O   -0.948984
     5  P    0.722580
     6  Ca   0.986488
     7  Ca   0.934539
     8  Ca   0.923672
     9  H   -0.408967
 Sum of Mulliken charges=   0.00000

 Dipole moment (field-independent basis, Debye):
    X=     0.8352    Y=     4.2927    Z=     4.0797  Tot=     5.9807
 Quadrupole moment (field-independent basis, Debye-Ang):
   XX=   -82.6921   YY=   -73.3947   ZZ=   -88.1836
   XY=    -7.3756   XZ=    -3.6936   YZ=    -5.0560

 Normal termination of Gaussian 03 at Mon May  4 20:13:29 2015.
