 Gaussian 03, Revision E.01,
 Gaussian 03:  EM64T-G03RevE.01 11-Sep-2007

 -------------------------------------
 # b3lyp/6-31G(d,p) pop=(ReadRadii,MK)
 -------------------------------------

 ----------
 Ca3PO4_194
 ----------
 Symbolic Z-matrix:
 Charge =  0 Multiplicity = 1

                         Standard orientation:
 ---------------------------------------------------------------------
 Center     Atomic     Atomic              Coordinates (Angstroms)
 Number     Number      Type              X           Y           Z
 ---------------------------------------------------------------------
    1          8             0       -1.568861    0.816286   -0.426162
    2          8             0        1.517299   -1.855838   -0.739049
    3          8             0       -2.679911   -1.320509    0.233695
    4          8             0        1.014439    0.456419    1.207440
    5         15             0       -2.941171    0.097340   -0.281827
    6         20             0        2.845789   -0.268335   -0.246950
    7         20             0       -0.276113   -1.365578    0.323509
    8         20             0        0.259888    2.286862   -0.081015
    9          1             0        1.262529    0.710060    2.109160
 ---------------------------------------------------------------------

 SCF Done:  E(RB+HF-LYP) =  -2675.74815538     A.U. after   12 cycles

 The electronic state is 1-A.
 Alpha  occ. eigenvalues -- -145.37048-145.34001-145.32294 -77.17666 -19.16049
 Alpha  occ. eigenvalues --  -19.15377 -19.12474 -18.98713 -15.44187 -15.41142
 Alpha  occ. eigenvalues --  -15.39476 -12.57391 -12.57308 -12.57271 -12.54358
 Alpha  occ. eigenvalues --  -12.54295 -12.54187 -12.52716 -12.52637 -12.52496
 Alpha  occ. eigenvalues --   -6.63489  -4.79922  -4.79677  -4.79270  -1.81548
 Alpha  occ. eigenvalues --   -1.78681  -1.77187  -1.09228  -1.09003  -1.08956
 Alpha  occ. eigenvalues --   -1.06558  -1.06392  -1.05799  -1.05566  -1.04944
 Alpha  occ. eigenvalues --   -1.04643  -1.01444  -0.96248  -0.93820  -0.72746
 Alpha  occ. eigenvalues --   -0.55170  -0.45329  -0.43967  -0.41515  -0.40853
 Alpha  occ. eigenvalues --   -0.33149  -0.32176  -0.31937  -0.31373  -0.28921
 Alpha  occ. eigenvalues --   -0.18619  -0.17115  -0.16833  -0.13071
 Alpha virt. eigenvalues --   -0.07891  -0.07418  -0.04078  -0.03252  -0.02016
 Alpha virt. eigenvalues --   -0.00416  -0.00157   0.01609   0.01993   0.02904
 Alpha virt. eigenvalues --    0.04104   0.04712   0.06310   0.07797   0.09235

 Mulliken atomic charges:
              1
     1  O   -0.699154
     2  O   -0.883444
     3  O   -0.624291
     4  O   -0.824603
     5  P    0.770127
     6  Ca   0.638817
     7  Ca   0.923577
     8  Ca   0.390504
     9  H    0.308468
 Sum of Mulliken charges=   0.00000

 Dipole moment (field-independent basis, Debye):
    X=    -0.2057    Y=     1.1388    Z=     3.8045  Tot=     3.9766
 Quadrupole moment (field-independent basis, Debye-Ang):
   XX=   -85.1284   YY=  -103.2417   ZZ=   -88.7094
   XY=    -4.0853   XZ=     3.9333   YZ=    -5.8880

 Normal termination of Gaussian 03 at Mon May  4 20:11:21 2015.
