 Gaussian 03, Revision E.01,
 Gaussian 03:  EM64T-G03RevE.01 11-Sep-2007

 -------------------------------------
 # b3lyp/6-31G(d,p) pop=(ReadRadii,MK)
 -------------------------------------

 ---------
 Ca3PO4_67
 ---------
 Symbolic Z-matrix:
 Charge =  0 Multiplicity = 1

                         Standard orientation:
 ---------------------------------------------------------------------
 Center     Atomic     Atomic              Coordinates (Angstroms)
 Number     Number      Type              X           Y           Z
 ---------------------------------------------------------------------
    1          9             0       -0.023663   -0.020553   -0.009406
    2          8             0        1.997695   -1.559127   -0.037670
    3          8             0        2.389577    0.968232   -0.233614
    4          8             0       -0.882796    0.515187    0.793785
    5          8             0       -2.294276   -1.754251   -0.573105
    6         15             0        3.020810   -0.429879   -0.270994
    7         20             0        0.379782    2.138406    0.073842
    8         20             0       -0.274051   -1.557323    0.401180
    9         20             0       -2.844770    0.482559   -0.247302
 ---------------------------------------------------------------------

 SCF Done:  E(RB+HF-LYP) =  -2774.58939196     A.U. after   12 cycles

 The electronic state is 1-A.
 Alpha  occ. eigenvalues -- -145.38357-145.35766-145.30556 -77.17261 -24.83744
 Alpha  occ. eigenvalues --  -19.25170 -19.15390 -19.15354 -18.99727 -15.45655
 Alpha  occ. eigenvalues --  -15.42955 -15.38817 -12.58845 -12.58773 -12.58710
 Alpha  occ. eigenvalues --  -12.56163 -12.56109 -12.55994 -12.51896 -12.51892
 Alpha  occ. eigenvalues --  -12.51695  -6.62989  -4.79426  -4.79190  -4.78770
 Alpha  occ. eigenvalues --   -1.83471  -1.80752  -1.80512  -1.46622  -1.13395
 Alpha  occ. eigenvalues --   -1.11010  -1.10710  -1.09557  -1.08313  -1.07996
 Alpha  occ. eigenvalues --   -1.07186  -1.06623  -1.06102  -1.01461  -0.96261
 Alpha  occ. eigenvalues --   -0.94479  -0.72500  -0.63593  -0.63057  -0.58709
 Alpha  occ. eigenvalues --   -0.54977  -0.44503  -0.40506  -0.40432  -0.38286
 Alpha  occ. eigenvalues --   -0.36709  -0.33175  -0.31675  -0.28166  -0.18029
 Alpha  occ. eigenvalues --   -0.16738  -0.15961  -0.13530
 Alpha virt. eigenvalues --   -0.07547  -0.07362  -0.05253  -0.05039  -0.02539
 Alpha virt. eigenvalues --   -0.00747  -0.00301   0.00271   0.01113   0.02667
 Alpha virt. eigenvalues --    0.02967   0.03672   0.04697   0.06285   0.08935

 Mulliken atomic charges:
              1
     1  F   -0.203489
     2  O   -0.660836
     3  O   -0.662138
     4  O   -0.396434
     5  O   -0.849682
     6  P    0.729568
     7  Ca   0.447175
     8  Ca   1.017724
     9  Ca   0.578112
 Sum of Mulliken charges=   0.00000

 Dipole moment (field-independent basis, Debye):
    X=     2.0199    Y=     1.1993    Z=     3.5891  Tot=     4.2895
 Quadrupole moment (field-independent basis, Debye-Ang):
   XX=   -99.5085   YY=  -107.9812   ZZ=   -92.5132
   XY=    -6.2720   XZ=    -2.1798   YZ=    -7.6829

 Normal termination of Gaussian 03 at Mon May  4 20:42:05 2015.
