 Gaussian 03, Revision E.01,
 Gaussian 03:  EM64T-G03RevE.01 11-Sep-2007

 -------------------------------------
 # b3lyp/6-31G(d,p) pop=(ReadRadii,MK)
 -------------------------------------

 ---------
 Ca3PO4_90
 ---------
 Symbolic Z-matrix:
 Charge =  0 Multiplicity = 1

                         Standard orientation:
 ---------------------------------------------------------------------
 Center     Atomic     Atomic              Coordinates (Angstroms)
 Number     Number      Type              X           Y           Z
 ---------------------------------------------------------------------
    1          8             0        3.014989    0.001410    0.099198
    2          8             0        0.735772    1.257692    0.691982
    3          8             0        0.740537   -1.293278    0.617299
    4          8             0       -1.754591    0.012231   -0.498601
    5         15             0        1.519449    0.001573    0.016447
    6         20             0       -0.553432   -1.679329   -1.209332
    7         20             0       -0.560890    1.747361   -1.109262
    8         20             0       -1.015101   -0.053625    1.762388
    9          1             0       -2.096931   -0.136161    3.598348
 ---------------------------------------------------------------------

 SCF Done:  E(RB+HF-LYP) =  -2675.71813674     A.U. after   11 cycles

 The electronic state is 1-A.
 Alpha  occ. eigenvalues -- -145.38739-145.38727-145.31137 -77.15188 -19.10478
 Alpha  occ. eigenvalues --  -19.10470 -19.07594 -19.04704 -15.45806 -15.45795
 Alpha  occ. eigenvalues --  -15.38356 -12.59023 -12.59012 -12.58941 -12.58931
 Alpha  occ. eigenvalues --  -12.58892 -12.58882 -12.51590 -12.51528 -12.51362
 Alpha  occ. eigenvalues --   -6.60257  -4.76607  -4.76539  -4.76405  -1.83288
 Alpha  occ. eigenvalues --   -1.83241  -1.76053  -1.11277  -1.11035  -1.10945
 Alpha  occ. eigenvalues --   -1.10812  -1.10581  -1.10051  -1.04193  -1.03827
 Alpha  occ. eigenvalues --   -1.03212  -0.96710  -0.90382  -0.90040  -0.79505
 Alpha  occ. eigenvalues --   -0.49985  -0.39794  -0.38583  -0.37015  -0.31821
 Alpha  occ. eigenvalues --   -0.30272  -0.28553  -0.26680  -0.25396  -0.25015
 Alpha  occ. eigenvalues --   -0.23930  -0.22716  -0.18213  -0.16947
 Alpha virt. eigenvalues --   -0.10354  -0.09927  -0.04820  -0.02497  -0.01590
 Alpha virt. eigenvalues --   -0.00587   0.00594   0.01687   0.02910   0.03009
 Alpha virt. eigenvalues --    0.03324   0.06529   0.07854   0.09304   0.09495

 Mulliken atomic charges:
              1
     1  O   -0.522831
     2  O   -0.780214
     3  O   -0.779748
     4  O   -0.922432
     5  P    0.843193
     6  Ca   0.969740
     7  Ca   0.968108
     8  Ca   0.524949
     9  H   -0.300766
 Sum of Mulliken charges=   0.00000

 Dipole moment (field-independent basis, Debye):
    X=    -4.4678    Y=     0.4141    Z=   -11.7223  Tot=    12.5517
 Quadrupole moment (field-independent basis, Debye-Ang):
   XX=  -120.5243   YY=   -53.1723   ZZ=   -98.2381
   XY=    -0.7400   XZ=    15.0624   YZ=     1.6527

 Normal termination of Gaussian 03 at Mon May  4 20:13:57 2015.
