 Gaussian 03, Revision E.01,
 Gaussian 03:  EM64T-G03RevE.01 11-Sep-2007

 -------------------------------------
 # b3lyp/6-31G(d,p) pop=(ReadRadii,MK)
 -------------------------------------

 ----------
 Ca3PO4_111
 ----------
 Symbolic Z-matrix:
 Charge =  0 Multiplicity = 1

                         Standard orientation:
 ---------------------------------------------------------------------
 Center     Atomic     Atomic              Coordinates (Angstroms)
 Number     Number      Type              X           Y           Z
 ---------------------------------------------------------------------
    1          8             0       -0.561498    1.169540   -0.324885
    2          8             0       -1.440549   -0.226333    1.583490
    3          8             0        1.228281    0.037947    1.069210
    4          8             0       -0.300047   -1.352350   -0.392774
    5         15             0       -0.278296   -0.114778    0.599029
    6         20             0        1.622761    1.947560   -0.285194
    7         20             0        1.989711   -1.675940   -0.391491
    8         20             0       -2.743839   -0.037121   -0.474707
    9          1             0       -4.607719    0.001251   -1.437920
 ---------------------------------------------------------------------

 SCF Done:  E(RB+HF-LYP) =  -2675.77963302     A.U. after    8 cycles

 The electronic state is 1-A.
 Alpha  occ. eigenvalues -- -145.39601-145.39496-145.36378 -77.19513 -19.12733
 Alpha  occ. eigenvalues --  -19.10993 -19.10616 -19.09073 -15.46683 -15.46581
 Alpha  occ. eigenvalues --  -15.43533 -12.59890 -12.59833 -12.59788 -12.59763
 Alpha  occ. eigenvalues --  -12.59730 -12.59661 -12.56755 -12.56729 -12.56543
 Alpha  occ. eigenvalues --   -6.64158  -4.80567  -4.80488  -4.80392  -1.83952
 Alpha  occ. eigenvalues --   -1.83855  -1.80955  -1.12019  -1.11519  -1.11432
 Alpha  occ. eigenvalues --   -1.11273  -1.11200  -1.11138  -1.08712  -1.08598
 Alpha  occ. eigenvalues --   -1.08309  -1.01349  -0.93690  -0.91746  -0.91344
 Alpha  occ. eigenvalues --   -0.51223  -0.43391  -0.41978  -0.40939  -0.35512
 Alpha  occ. eigenvalues --   -0.34151  -0.32236  -0.31371  -0.30613  -0.28134
 Alpha  occ. eigenvalues --   -0.27106  -0.24496  -0.20659  -0.15018
 Alpha virt. eigenvalues --   -0.10004  -0.04648  -0.03360  -0.01677  -0.01650
 Alpha virt. eigenvalues --   -0.00789   0.00082   0.00885   0.01038   0.02296
 Alpha virt. eigenvalues --    0.05605   0.06230   0.08215   0.08276   0.11481

 Mulliken atomic charges:
              1
     1  O   -0.829845
     2  O   -0.675567
     3  O   -0.784633
     4  O   -0.797675
     5  P    1.390254
     6  Ca   0.584812
     7  Ca   0.575509
     8  Ca   0.833340
     9  H   -0.296194
 Sum of Mulliken charges=   0.00000

 Dipole moment (field-independent basis, Debye):
    X=     5.8112    Y=     0.5951    Z=    -0.4219  Tot=     5.8568
 Quadrupole moment (field-independent basis, Debye-Ang):
   XX=  -116.3636   YY=   -71.1685   ZZ=  -102.1039
   XY=    -2.4722   XZ=    -5.2875   YZ=     1.6593

 Normal termination of Gaussian 03 at Mon May  4 20:09:29 2015.
