 Gaussian 03, Revision E.01,
 Gaussian 03:  EM64T-G03RevE.01 11-Sep-2007

 -------------------------------------
 # b3lyp/6-31G(d,p) pop=(ReadRadii,MK)
 -------------------------------------

 ----------
 Ca3PO4_164
 ----------
 Symbolic Z-matrix:
 Charge =  0 Multiplicity = 1

                         Standard orientation:
 ---------------------------------------------------------------------
 Center     Atomic     Atomic              Coordinates (Angstroms)
 Number     Number      Type              X           Y           Z
 ---------------------------------------------------------------------
    1          8             0        1.435802    0.617398    1.379740
    2          8             0        2.505562    0.412849    0.260681
    3          8             0       -0.180549   -0.388780   -0.370294
    4          8             0       -4.385518   -0.316822   -0.344213
    5         15             0        0.251261   -0.628787    1.346740
    6         20             0        0.894567    1.827250   -0.600430
    7         20             0        1.816242   -1.543180   -0.796441
    8         20             0       -2.384698    0.082412    0.045623
    9          1             0       -5.293498   -0.494980   -0.583468
 ---------------------------------------------------------------------

 SCF Done:  E(RB+HF-LYP) =  -2675.58826227     A.U. after   13 cycles

 The electronic state is 1-A.
 Alpha  occ. eigenvalues -- -145.38752-145.37249-145.34623 -77.09602 -19.18420
 Alpha  occ. eigenvalues --  -19.13594 -19.12136 -19.04208 -15.45832 -15.44354
 Alpha  occ. eigenvalues --  -15.41838 -12.59018 -12.58970 -12.58949 -12.57552
 Alpha  occ. eigenvalues --  -12.57515 -12.57428 -12.55073 -12.55040 -12.54821
 Alpha  occ. eigenvalues --   -6.55906  -4.72426  -4.72098  -4.71476  -1.83163
 Alpha  occ. eigenvalues --   -1.81751  -1.79477  -1.11051  -1.10706  -1.10544
 Alpha  occ. eigenvalues --   -1.09580  -1.09308  -1.09225  -1.07457  -1.07261
 Alpha  occ. eigenvalues --   -1.06911  -1.01080  -0.91404  -0.85326  -0.82026
 Alpha  occ. eigenvalues --   -0.54027  -0.42150  -0.39854  -0.39119  -0.37899
 Alpha  occ. eigenvalues --   -0.34168  -0.31439  -0.29903  -0.26020  -0.24697
 Alpha  occ. eigenvalues --   -0.21959  -0.21936  -0.17507  -0.13686
 Alpha virt. eigenvalues --   -0.09809  -0.05857  -0.04884  -0.02961  -0.02367
 Alpha virt. eigenvalues --   -0.01202   0.00512   0.01154   0.01925   0.02580
 Alpha virt. eigenvalues --    0.02760   0.03885   0.04623   0.06877   0.07890

 Mulliken atomic charges:
              1
     1  O   -0.437185
     2  O   -0.533604
     3  O   -0.876250
     4  O   -0.818748
     5  P    0.266803
     6  Ca   0.456208
     7  Ca   0.754865
     8  Ca   0.916466
     9  H    0.271446
 Sum of Mulliken charges=   0.00000

 Dipole moment (field-independent basis, Debye):
    X=     1.7791    Y=    -1.3456    Z=    -2.1195  Tot=     3.0770
 Quadrupole moment (field-independent basis, Debye-Ang):
   XX=  -103.4420   YY=   -80.3007   ZZ=   -98.9953
   XY=    -5.9942   XZ=    -7.9363   YZ=     3.8452

 Normal termination of Gaussian 03 at Mon May  4 20:10:48 2015.
